<?xml version="1.0" encoding="UTF-8"?>

<!-- generated on 2025-06-03 02:20:42 by Eclipse SUMO sumo Version 1.22.0
<sumoConfiguration xmlns:xsi="http://www.w3.org/2001/XMLSchema-instance" xsi:noNamespaceSchemaLocation="http://sumo.dlr.de/xsd/sumoConfiguration.xsd">

    <input>
        <net-file value="osm.net.xml"/>
        <route-files value="route.rou.xml"/>
        <additional-files value="osm.poly.xml.gz"/>
    </input>

    <output>
        <summary-output value="summary_eval_final_ep5.xml"/>
        <tripinfo-output value="tripinfo_eval_final_ep5.xml"/>
    </output>

    <time>
        <begin value="0"/>
        <end value="3600"/>
    </time>

    <processing>
        <time-to-teleport value="-1"/>
        <waiting-time-memory value="1000"/>
    </processing>

    <report>
        <verbose value="true"/>
        <duration-log.statistics value="true"/>
        <no-step-log value="true"/>
    </report>

    <traci_server>
        <remote-port value="52046"/>
    </traci_server>

    <random_number>
        <seed value="15904"/>
    </random_number>

</sumoConfiguration>
-->

<tripinfos xmlns:xsi="http://www.w3.org/2001/XMLSchema-instance" xsi:noNamespaceSchemaLocation="http://sumo.dlr.de/xsd/tripinfo_file.xsd">
    <tripinfo id="bg_E_W.0" depart="16.00" departLane="749662140#0_0" departPos="5.10" departSpeed="0.00" departDelay="0.00" arrival="37.00" arrivalLane="978400303#0_0" arrivalPos="149.14" arrivalSpeed="19.99" duration="21.00" routeLength="297.03" waitingTime="0.00" waitingCount="0" stopTime="0.00" timeLoss="5.42" rerouteNo="0" devices="tripinfo_bg_E_W.0" vType="car_commuter" speedFactor="0.97" vaporized=""/>
    <tripinfo id="commuter_N_S.0" depart="7.00" departLane="754598165#2_0" departPos="5.10" departSpeed="0.00" departDelay="0.00" arrival="93.00" arrivalLane="757092064#1_0" arrivalPos="81.46" arrivalSpeed="19.86" duration="86.00" routeLength="213.54" waitingTime="65.00" waitingCount="1" stopTime="0.00" timeLoss="75.17" rerouteNo="0" devices="tripinfo_commuter_N_S.0" vType="car_commuter" speedFactor="0.84" vaporized=""/>
    <tripinfo id="commuter_N_S.2" depart="16.00" departLane="754598165#2_0" departPos="5.10" departSpeed="0.00" departDelay="5.00" arrival="93.00" arrivalLane="757092064#1_2" arrivalPos="81.46" arrivalSpeed="18.80" duration="77.00" routeLength="213.54" waitingTime="53.00" waitingCount="1" stopTime="0.00" timeLoss="66.18" rerouteNo="0" devices="tripinfo_commuter_N_S.2" vType="car_commuter" speedFactor="1.22" vaporized=""/>
    <tripinfo id="commuter_N_S.1" depart="10.00" departLane="754598165#2_0" departPos="5.10" departSpeed="0.00" departDelay="2.00" arrival="94.00" arrivalLane="757092064#1_1" arrivalPos="81.46" arrivalSpeed="19.85" duration="84.00" routeLength="213.54" waitingTime="60.00" waitingCount="1" stopTime="0.00" timeLoss="72.91" rerouteNo="0" devices="tripinfo_commuter_N_S.1" vType="car_commuter" speedFactor="0.90" vaporized=""/>
    <tripinfo id="commuter_N_S.5" depart="25.00" departLane="754598165#2_0" departPos="5.10" departSpeed="0.00" departDelay="1.00" arrival="95.00" arrivalLane="757092064#1_2" arrivalPos="81.46" arrivalSpeed="19.69" duration="70.00" routeLength="213.54" waitingTime="46.00" waitingCount="1" stopTime="0.00" timeLoss="59.11" rerouteNo="0" devices="tripinfo_commuter_N_S.5" vType="car_commuter" speedFactor="1.15" vaporized=""/>
    <tripinfo id="commuter_N_S.3" depart="19.00" departLane="754598165#2_0" departPos="5.10" departSpeed="0.00" departDelay="4.00" arrival="96.00" arrivalLane="757092064#1_1" arrivalPos="81.46" arrivalSpeed="19.23" duration="77.00" routeLength="213.54" waitingTime="52.00" waitingCount="1" stopTime="0.00" timeLoss="65.47" rerouteNo="0" devices="tripinfo_commuter_N_S.3" vType="car_commuter" speedFactor="1.06" vaporized=""/>
    <tripinfo id="commuter_N_S.4" depart="22.00" departLane="754598165#2_0" departPos="5.10" departSpeed="0.00" departDelay="2.00" arrival="97.00" arrivalLane="757092064#1_0" arrivalPos="81.46" arrivalSpeed="19.29" duration="75.00" routeLength="213.54" waitingTime="51.00" waitingCount="1" stopTime="0.00" timeLoss="64.05" rerouteNo="0" devices="tripinfo_commuter_N_S.4" vType="car_commuter" speedFactor="0.94" vaporized=""/>
    <tripinfo id="commuter_N_S.6" depart="28.00" departLane="754598165#2_0" departPos="5.10" departSpeed="0.00" departDelay="3.00" arrival="97.00" arrivalLane="757092064#1_1" arrivalPos="81.46" arrivalSpeed="19.78" duration="69.00" routeLength="213.54" waitingTime="45.00" waitingCount="1" stopTime="0.00" timeLoss="58.28" rerouteNo="0" devices="tripinfo_commuter_N_S.6" vType="car_commuter" speedFactor="0.95" vaporized=""/>
    <tripinfo id="commuter_N_S.7" depart="40.00" departLane="754598165#2_0" departPos="5.10" departSpeed="0.00" departDelay="0.00" arrival="99.00" arrivalLane="757092064#1_0" arrivalPos="81.46" arrivalSpeed="19.94" duration="59.00" routeLength="213.54" waitingTime="36.00" waitingCount="1" stopTime="0.00" timeLoss="48.20" rerouteNo="0" devices="tripinfo_commuter_N_S.7" vType="car_commuter" speedFactor="1.08" vaporized=""/>
    <tripinfo id="commuter_N_S.8" depart="44.00" departLane="754598165#2_0" departPos="5.10" departSpeed="0.00" departDelay="0.00" arrival="99.00" arrivalLane="757092064#1_1" arrivalPos="81.46" arrivalSpeed="18.74" duration="55.00" routeLength="213.54" waitingTime="31.00" waitingCount="1" stopTime="0.00" timeLoss="44.09" rerouteNo="0" devices="tripinfo_commuter_N_S.8" vType="car_commuter" speedFactor="1.10" vaporized=""/>
    <tripinfo id="commuter_N_S.11" depart="66.00" departLane="754598165#2_0" departPos="5.10" departSpeed="0.00" departDelay="0.00" arrival="100.00" arrivalLane="757092064#1_2" arrivalPos="81.46" arrivalSpeed="18.76" duration="34.00" routeLength="213.54" waitingTime="11.00" waitingCount="1" stopTime="0.00" timeLoss="23.23" rerouteNo="0" devices="tripinfo_commuter_N_S.11" vType="car_commuter" speedFactor="0.87" vaporized=""/>
    <tripinfo id="commuter_N_E.0" depart="13.00" departLane="754598165#2_0" departPos="5.10" departSpeed="0.00" departDelay="3.00" arrival="101.00" arrivalLane="563175146#1_0" arrivalPos="228.90" arrivalSpeed="19.60" duration="88.00" routeLength="331.30" waitingTime="58.00" waitingCount="1" stopTime="0.00" timeLoss="70.22" rerouteNo="0" devices="tripinfo_commuter_N_E.0" vType="car_commuter" speedFactor="0.89" vaporized=""/>
    <tripinfo id="commuter_N_W.0" depart="30.00" departLane="754598165#2_0" departPos="5.10" departSpeed="0.00" departDelay="5.00" arrival="102.00" arrivalLane="978400303#0_3" arrivalPos="149.14" arrivalSpeed="19.74" duration="72.00" routeLength="273.05" waitingTime="43.00" waitingCount="1" stopTime="0.00" timeLoss="55.49" rerouteNo="0" devices="tripinfo_commuter_N_W.0" vType="car_commuter" speedFactor="0.91" vaporized=""/>
    <tripinfo id="commuter_N_W.1" depart="59.00" departLane="754598165#2_0" departPos="5.10" departSpeed="0.00" departDelay="0.00" arrival="103.00" arrivalLane="978400303#0_3" arrivalPos="149.14" arrivalSpeed="18.82" duration="44.00" routeLength="273.05" waitingTime="16.00" waitingCount="1" stopTime="0.00" timeLoss="28.93" rerouteNo="0" devices="tripinfo_commuter_N_W.1" vType="car_commuter" speedFactor="1.06" vaporized=""/>
    <tripinfo id="bg_E_S.0" depart="40.00" departLane="749662140#0_0" departPos="5.10" departSpeed="0.00" departDelay="0.00" arrival="107.00" arrivalLane="757092064#1_0" arrivalPos="81.46" arrivalSpeed="18.94" duration="67.00" routeLength="177.43" waitingTime="45.00" waitingCount="1" stopTime="0.00" timeLoss="56.73" rerouteNo="0" devices="tripinfo_bg_E_S.0" vType="car_commuter" speedFactor="0.98" vaporized=""/>
    <tripinfo id="bg_E_S.1" depart="56.00" departLane="749662140#0_0" departPos="5.10" departSpeed="0.00" departDelay="2.00" arrival="111.00" arrivalLane="757092064#1_0" arrivalPos="81.46" arrivalSpeed="18.96" duration="55.00" routeLength="177.43" waitingTime="32.00" waitingCount="1" stopTime="0.00" timeLoss="43.56" rerouteNo="0" devices="tripinfo_bg_E_S.1" vType="car_commuter" speedFactor="0.89" vaporized=""/>
    <tripinfo id="bg_E_W.1" depart="53.00" departLane="749662140#0_0" departPos="5.10" departSpeed="0.00" departDelay="0.00" arrival="113.00" arrivalLane="978400303#0_0" arrivalPos="149.14" arrivalSpeed="19.00" duration="60.00" routeLength="297.03" waitingTime="31.00" waitingCount="1" stopTime="0.00" timeLoss="45.05" rerouteNo="0" devices="tripinfo_bg_E_W.1" vType="car_commuter" speedFactor="1.18" vaporized=""/>
    <tripinfo id="bg_E_W.2" depart="60.00" departLane="749662140#0_0" departPos="5.10" departSpeed="0.00" departDelay="0.00" arrival="113.00" arrivalLane="978400303#0_2" arrivalPos="149.14" arrivalSpeed="19.11" duration="53.00" routeLength="297.03" waitingTime="24.00" waitingCount="1" stopTime="0.00" timeLoss="37.30" rerouteNo="0" devices="tripinfo_bg_E_W.2" vType="car_commuter" speedFactor="1.08" vaporized=""/>
    <tripinfo id="bg_E_W.5" depart="85.00" departLane="749662140#0_0" departPos="5.10" departSpeed="0.00" departDelay="0.00" arrival="113.00" arrivalLane="978400303#0_3" arrivalPos="149.14" arrivalSpeed="19.29" duration="28.00" routeLength="297.03" waitingTime="0.00" waitingCount="0" stopTime="0.00" timeLoss="12.46" rerouteNo="0" devices="tripinfo_bg_E_W.5" vType="car_commuter" speedFactor="1.03" vaporized=""/>
    <tripinfo id="bg_E_W.3" depart="71.00" departLane="749662140#0_0" departPos="5.10" departSpeed="0.00" departDelay="0.00" arrival="115.00" arrivalLane="978400303#0_1" arrivalPos="149.14" arrivalSpeed="19.16" duration="44.00" routeLength="297.03" waitingTime="15.00" waitingCount="1" stopTime="0.00" timeLoss="28.70" rerouteNo="0" devices="tripinfo_bg_E_W.3" vType="car_commuter" speedFactor="0.91" vaporized=""/>
    <tripinfo id="bg_E_W.4" depart="76.00" departLane="749662140#0_0" departPos="5.10" departSpeed="0.00" departDelay="0.00" arrival="118.00" arrivalLane="978400303#0_0" arrivalPos="149.14" arrivalSpeed="19.18" duration="42.00" routeLength="297.03" waitingTime="12.00" waitingCount="1" stopTime="0.00" timeLoss="26.74" rerouteNo="0" devices="tripinfo_bg_E_W.4" vType="car_commuter" speedFactor="0.88" vaporized=""/>
    <tripinfo id="commuter_N_S.9" depart="51.00" departLane="754598165#2_0" departPos="5.10" departSpeed="0.00" departDelay="0.00" arrival="119.00" arrivalLane="757092064#1_0" arrivalPos="81.46" arrivalSpeed="19.82" duration="68.00" routeLength="213.54" waitingTime="40.00" waitingCount="2" stopTime="0.00" timeLoss="56.83" rerouteNo="0" devices="tripinfo_commuter_N_S.9" vType="car_commuter" speedFactor="0.97" vaporized=""/>
    <tripinfo id="commuter_N_S.10" depart="57.00" departLane="754598165#2_0" departPos="5.10" departSpeed="0.00" departDelay="0.00" arrival="120.00" arrivalLane="757092064#1_1" arrivalPos="81.46" arrivalSpeed="19.81" duration="63.00" routeLength="213.54" waitingTime="35.00" waitingCount="2" stopTime="0.00" timeLoss="51.87" rerouteNo="0" devices="tripinfo_commuter_N_S.10" vType="car_commuter" speedFactor="1.01" vaporized=""/>
    <tripinfo id="commuter_N_S.12" depart="83.00" departLane="754598165#2_0" departPos="5.10" departSpeed="0.00" departDelay="1.00" arrival="122.00" arrivalLane="757092064#1_1" arrivalPos="81.46" arrivalSpeed="19.98" duration="39.00" routeLength="213.54" waitingTime="12.00" waitingCount="1" stopTime="0.00" timeLoss="27.69" rerouteNo="0" devices="tripinfo_commuter_N_S.12" vType="car_commuter" speedFactor="1.18" vaporized=""/>
    <tripinfo id="commuter_N_W.2" depart="74.00" departLane="754598165#2_0" departPos="5.10" departSpeed="0.00" departDelay="0.00" arrival="124.00" arrivalLane="978400303#0_3" arrivalPos="149.14" arrivalSpeed="19.11" duration="50.00" routeLength="273.05" waitingTime="16.00" waitingCount="2" stopTime="0.00" timeLoss="34.12" rerouteNo="0" devices="tripinfo_commuter_N_W.2" vType="car_commuter" speedFactor="1.01" vaporized=""/>
    <tripinfo id="commuter_N_E.1" depart="60.00" departLane="754598165#2_0" departPos="5.10" departSpeed="0.00" departDelay="0.00" arrival="127.00" arrivalLane="563175146#1_0" arrivalPos="228.90" arrivalSpeed="19.15" duration="67.00" routeLength="331.30" waitingTime="32.00" waitingCount="2" stopTime="0.00" timeLoss="49.51" rerouteNo="0" devices="tripinfo_commuter_N_E.1" vType="car_commuter" speedFactor="1.06" vaporized=""/>
    <tripinfo id="commuter_N_W.3" depart="97.00" departLane="754598165#2_0" departPos="5.10" departSpeed="0.00" departDelay="0.00" arrival="127.00" arrivalLane="978400303#0_3" arrivalPos="149.14" arrivalSpeed="19.13" duration="30.00" routeLength="273.05" waitingTime="1.00" waitingCount="1" stopTime="0.00" timeLoss="13.25" rerouteNo="0" devices="tripinfo_commuter_N_W.3" vType="car_commuter" speedFactor="0.74" vaporized=""/>
    <tripinfo id="commuter_N_E.2" depart="68.00" departLane="754598165#2_0" departPos="5.10" departSpeed="0.00" departDelay="0.00" arrival="129.00" arrivalLane="563175146#1_0" arrivalPos="228.90" arrivalSpeed="19.08" duration="61.00" routeLength="331.30" waitingTime="25.00" waitingCount="2" stopTime="0.00" timeLoss="43.15" rerouteNo="0" devices="tripinfo_commuter_N_E.2" vType="car_commuter" speedFactor="1.04" vaporized=""/>
    <tripinfo id="commuter_N_S.13" depart="101.00" departLane="754598165#2_0" departPos="5.10" departSpeed="0.00" departDelay="0.00" arrival="182.00" arrivalLane="757092064#1_0" arrivalPos="81.46" arrivalSpeed="19.43" duration="81.00" routeLength="213.54" waitingTime="56.00" waitingCount="1" stopTime="0.00" timeLoss="69.94" rerouteNo="0" devices="tripinfo_commuter_N_S.13" vType="car_commuter" speedFactor="1.18" vaporized=""/>
    <tripinfo id="commuter_N_S.15" depart="105.00" departLane="754598165#2_0" departPos="5.10" departSpeed="0.00" departDelay="1.00" arrival="183.00" arrivalLane="757092064#1_2" arrivalPos="81.46" arrivalSpeed="19.13" duration="78.00" routeLength="213.54" waitingTime="53.00" waitingCount="1" stopTime="0.00" timeLoss="67.10" rerouteNo="0" devices="tripinfo_commuter_N_S.15" vType="car_commuter" speedFactor="0.96" vaporized=""/>
    <tripinfo id="commuter_N_S.14" depart="102.00" departLane="754598165#2_0" departPos="5.10" departSpeed="0.00" departDelay="0.00" arrival="184.00" arrivalLane="757092064#1_1" arrivalPos="81.46" arrivalSpeed="19.14" duration="82.00" routeLength="213.54" waitingTime="53.00" waitingCount="1" stopTime="0.00" timeLoss="70.85" rerouteNo="0" devices="tripinfo_commuter_N_S.14" vType="car_commuter" speedFactor="1.07" vaporized=""/>
    <tripinfo id="commuter_N_W.4" depart="98.00" departLane="754598165#2_0" departPos="5.10" departSpeed="0.00" departDelay="0.00" arrival="185.00" arrivalLane="978400303#0_3" arrivalPos="149.14" arrivalSpeed="19.48" duration="87.00" routeLength="273.05" waitingTime="54.00" waitingCount="1" stopTime="0.00" timeLoss="71.99" rerouteNo="0" devices="tripinfo_commuter_N_W.4" vType="car_commuter" speedFactor="1.08" vaporized=""/>
    <tripinfo id="commuter_N_S.16" depart="123.00" departLane="754598165#2_0" departPos="5.10" departSpeed="0.00" departDelay="0.00" arrival="185.00" arrivalLane="757092064#1_1" arrivalPos="81.46" arrivalSpeed="19.29" duration="62.00" routeLength="213.54" waitingTime="39.00" waitingCount="1" stopTime="0.00" timeLoss="51.33" rerouteNo="0" devices="tripinfo_commuter_N_S.16" vType="car_commuter" speedFactor="1.15" vaporized=""/>
    <tripinfo id="commuter_N_E.3" depart="80.00" departLane="754598165#2_0" departPos="5.10" departSpeed="0.00" departDelay="0.00" arrival="187.00" arrivalLane="563175146#1_0" arrivalPos="228.90" arrivalSpeed="19.76" duration="107.00" routeLength="331.30" waitingTime="66.00" waitingCount="3" stopTime="0.00" timeLoss="89.76" rerouteNo="0" devices="tripinfo_commuter_N_E.3" vType="car_commuter" speedFactor="1.07" vaporized=""/>
    <tripinfo id="commuter_N_S.17" depart="127.00" departLane="754598165#2_0" departPos="5.10" departSpeed="0.00" departDelay="0.00" arrival="187.00" arrivalLane="757092064#1_1" arrivalPos="81.46" arrivalSpeed="19.98" duration="60.00" routeLength="213.54" waitingTime="35.00" waitingCount="1" stopTime="0.00" timeLoss="49.03" rerouteNo="0" devices="tripinfo_commuter_N_S.17" vType="car_commuter" speedFactor="0.83" vaporized=""/>
    <tripinfo id="commuter_N_S.19" depart="136.00" departLane="754598165#2_0" departPos="5.10" departSpeed="0.00" departDelay="0.00" arrival="187.00" arrivalLane="757092064#1_2" arrivalPos="81.46" arrivalSpeed="19.10" duration="51.00" routeLength="213.54" waitingTime="26.00" waitingCount="1" stopTime="0.00" timeLoss="39.79" rerouteNo="0" devices="tripinfo_commuter_N_S.19" vType="car_commuter" speedFactor="1.08" vaporized=""/>
    <tripinfo id="commuter_N_S.18" depart="130.00" departLane="754598165#2_0" departPos="5.10" departSpeed="0.00" departDelay="0.00" arrival="188.00" arrivalLane="757092064#1_0" arrivalPos="81.46" arrivalSpeed="18.76" duration="58.00" routeLength="213.54" waitingTime="34.00" waitingCount="1" stopTime="0.00" timeLoss="46.51" rerouteNo="0" devices="tripinfo_commuter_N_S.18" vType="car_commuter" speedFactor="0.90" vaporized=""/>
    <tripinfo id="commuter_N_E.4" depart="84.00" departLane="754598165#2_0" departPos="5.10" departSpeed="0.00" departDelay="0.00" arrival="190.00" arrivalLane="563175146#1_0" arrivalPos="228.90" arrivalSpeed="19.91" duration="106.00" routeLength="331.30" waitingTime="64.00" waitingCount="3" stopTime="0.00" timeLoss="88.42" rerouteNo="0" devices="tripinfo_commuter_N_E.4" vType="car_commuter" speedFactor="1.15" vaporized=""/>
    <tripinfo id="commuter_N_W.5" depart="126.00" departLane="754598165#2_0" departPos="5.10" departSpeed="0.00" departDelay="0.00" arrival="190.00" arrivalLane="978400303#0_3" arrivalPos="149.14" arrivalSpeed="19.26" duration="64.00" routeLength="273.05" waitingTime="36.00" waitingCount="1" stopTime="0.00" timeLoss="47.67" rerouteNo="0" devices="tripinfo_commuter_N_W.5" vType="car_commuter" speedFactor="0.93" vaporized=""/>
    <tripinfo id="commuter_N_E.5" depart="92.00" departLane="754598165#2_0" departPos="5.10" departSpeed="0.00" departDelay="1.00" arrival="192.00" arrivalLane="563175146#1_0" arrivalPos="228.90" arrivalSpeed="18.81" duration="100.00" routeLength="331.30" waitingTime="60.00" waitingCount="2" stopTime="0.00" timeLoss="82.04" rerouteNo="0" devices="tripinfo_commuter_N_E.5" vType="car_commuter" speedFactor="0.94" vaporized=""/>
    <tripinfo id="commuter_N_W.6" depart="145.00" departLane="754598165#2_0" departPos="5.10" departSpeed="0.00" departDelay="5.00" arrival="195.00" arrivalLane="978400303#0_3" arrivalPos="149.14" arrivalSpeed="19.53" duration="50.00" routeLength="273.05" waitingTime="19.00" waitingCount="1" stopTime="0.00" timeLoss="32.93" rerouteNo="0" devices="tripinfo_commuter_N_W.6" vType="car_commuter" speedFactor="0.79" vaporized=""/>
    <tripinfo id="bg_E_N.0" depart="134.00" departLane="749662140#0_0" departPos="5.10" departSpeed="0.00" departDelay="0.00" arrival="199.00" arrivalLane="749988360#0_2" arrivalPos="93.21" arrivalSpeed="18.81" duration="65.00" routeLength="241.59" waitingTime="40.00" waitingCount="1" stopTime="0.00" timeLoss="51.46" rerouteNo="0" devices="tripinfo_bg_E_N.0" vType="car_commuter" speedFactor="0.94" vaporized=""/>
    <tripinfo id="bg_E_N.1" depart="153.00" departLane="749662140#0_0" departPos="5.10" departSpeed="0.00" departDelay="0.00" arrival="200.00" arrivalLane="749988360#0_2" arrivalPos="93.21" arrivalSpeed="19.15" duration="47.00" routeLength="241.59" waitingTime="21.00" waitingCount="1" stopTime="0.00" timeLoss="34.68" rerouteNo="0" devices="tripinfo_bg_E_N.1" vType="car_commuter" speedFactor="1.10" vaporized=""/>
    <tripinfo id="bg_E_W.6" depart="112.00" departLane="749662140#0_0" departPos="5.10" departSpeed="0.00" departDelay="0.00" arrival="201.00" arrivalLane="978400303#0_0" arrivalPos="149.14" arrivalSpeed="19.81" duration="89.00" routeLength="297.03" waitingTime="61.00" waitingCount="1" stopTime="0.00" timeLoss="73.90" rerouteNo="0" devices="tripinfo_bg_E_W.6" vType="car_commuter" speedFactor="1.14" vaporized=""/>
    <tripinfo id="bg_E_W.7" depart="130.00" departLane="749662140#0_0" departPos="5.10" departSpeed="0.00" departDelay="0.00" arrival="202.00" arrivalLane="978400303#0_1" arrivalPos="149.14" arrivalSpeed="18.98" duration="72.00" routeLength="297.03" waitingTime="43.00" waitingCount="1" stopTime="0.00" timeLoss="56.66" rerouteNo="0" devices="tripinfo_bg_E_W.7" vType="car_commuter" speedFactor="0.98" vaporized=""/>
    <tripinfo id="bg_E_W.8" depart="146.00" departLane="749662140#0_0" departPos="5.10" departSpeed="0.00" departDelay="0.00" arrival="203.00" arrivalLane="978400303#0_0" arrivalPos="149.14" arrivalSpeed="19.60" duration="57.00" routeLength="297.03" waitingTime="27.00" waitingCount="1" stopTime="0.00" timeLoss="41.92" rerouteNo="0" devices="tripinfo_bg_E_W.8" vType="car_commuter" speedFactor="1.04" vaporized=""/>
    <tripinfo id="commuter_N_S.20" depart="139.00" departLane="754598165#2_0" departPos="5.10" departSpeed="0.00" departDelay="1.00" arrival="207.00" arrivalLane="757092064#1_0" arrivalPos="81.46" arrivalSpeed="19.85" duration="68.00" routeLength="213.54" waitingTime="41.00" waitingCount="2" stopTime="0.00" timeLoss="57.01" rerouteNo="0" devices="tripinfo_commuter_N_S.20" vType="car_commuter" speedFactor="0.94" vaporized=""/>
    <tripinfo id="commuter_N_S.21" depart="142.00" departLane="754598165#2_0" departPos="5.10" departSpeed="0.00" departDelay="2.00" arrival="208.00" arrivalLane="757092064#1_1" arrivalPos="81.46" arrivalSpeed="19.87" duration="66.00" routeLength="213.54" waitingTime="37.00" waitingCount="2" stopTime="0.00" timeLoss="54.96" rerouteNo="0" devices="tripinfo_commuter_N_S.21" vType="car_commuter" speedFactor="1.25" vaporized=""/>
    <tripinfo id="commuter_N_S.23" depart="157.00" departLane="754598165#2_0" departPos="5.10" departSpeed="0.00" departDelay="0.00" arrival="209.00" arrivalLane="757092064#1_0" arrivalPos="81.46" arrivalSpeed="19.49" duration="52.00" routeLength="213.54" waitingTime="22.00" waitingCount="2" stopTime="0.00" timeLoss="40.89" rerouteNo="0" devices="tripinfo_commuter_N_S.23" vType="car_commuter" speedFactor="1.09" vaporized=""/>
    <tripinfo id="commuter_N_S.22" depart="152.00" departLane="754598165#2_0" departPos="5.10" departSpeed="0.00" departDelay="0.00" arrival="210.00" arrivalLane="757092064#1_1" arrivalPos="81.46" arrivalSpeed="18.79" duration="58.00" routeLength="213.54" waitingTime="27.00" waitingCount="2" stopTime="0.00" timeLoss="46.65" rerouteNo="0" devices="tripinfo_commuter_N_S.22" vType="car_commuter" speedFactor="1.08" vaporized=""/>
    <tripinfo id="commuter_N_W.7" depart="147.00" departLane="754598165#2_0" departPos="5.10" departSpeed="0.00" departDelay="0.00" arrival="211.00" arrivalLane="978400303#0_3" arrivalPos="149.14" arrivalSpeed="19.38" duration="64.00" routeLength="273.05" waitingTime="31.00" waitingCount="2" stopTime="0.00" timeLoss="49.64" rerouteNo="0" devices="tripinfo_commuter_N_W.7" vType="car_commuter" speedFactor="1.25" vaporized=""/>
    <tripinfo id="commuter_N_W.8" depart="163.00" departLane="754598165#2_0" departPos="5.10" departSpeed="0.00" departDelay="4.00" arrival="214.00" arrivalLane="978400303#0_3" arrivalPos="149.14" arrivalSpeed="19.66" duration="51.00" routeLength="273.05" waitingTime="17.00" waitingCount="2" stopTime="0.00" timeLoss="35.03" rerouteNo="0" devices="tripinfo_commuter_N_W.8" vType="car_commuter" speedFactor="0.95" vaporized=""/>
    <tripinfo id="bg_E_N.2" depart="186.00" departLane="749662140#0_0" departPos="5.10" departSpeed="0.00" departDelay="0.00" arrival="228.00" arrivalLane="749988360#0_2" arrivalPos="93.21" arrivalSpeed="19.75" duration="42.00" routeLength="241.59" waitingTime="20.00" waitingCount="1" stopTime="0.00" timeLoss="29.62" rerouteNo="0" devices="tripinfo_bg_E_N.2" vType="car_commuter" speedFactor="1.15" vaporized=""/>
    <tripinfo id="bg_E_W.9" depart="196.00" departLane="749662140#0_0" departPos="5.10" departSpeed="0.00" departDelay="0.00" arrival="231.00" arrivalLane="978400303#0_0" arrivalPos="149.14" arrivalSpeed="19.45" duration="35.00" routeLength="297.03" waitingTime="7.00" waitingCount="1" stopTime="0.00" timeLoss="19.38" rerouteNo="0" devices="tripinfo_bg_E_W.9" vType="car_commuter" speedFactor="0.96" vaporized=""/>
    <tripinfo id="commuter_N_S.24" depart="160.00" departLane="754598165#2_0" departPos="5.10" departSpeed="0.00" departDelay="1.00" arrival="294.00" arrivalLane="757092064#1_1" arrivalPos="81.46" arrivalSpeed="19.79" duration="134.00" routeLength="213.54" waitingTime="97.00" waitingCount="3" stopTime="0.00" timeLoss="122.84" rerouteNo="0" devices="tripinfo_commuter_N_S.24" vType="car_commuter" speedFactor="1.13" vaporized=""/>
    <tripinfo id="commuter_N_S.26" depart="166.00" departLane="754598165#2_0" departPos="5.10" departSpeed="0.00" departDelay="0.00" arrival="294.00" arrivalLane="757092064#1_0" arrivalPos="81.46" arrivalSpeed="19.85" duration="128.00" routeLength="213.54" waitingTime="97.00" waitingCount="3" stopTime="0.00" timeLoss="116.37" rerouteNo="0" devices="tripinfo_commuter_N_S.26" vType="car_commuter" speedFactor="1.04" vaporized=""/>
    <tripinfo id="commuter_N_S.25" depart="164.00" departLane="754598165#2_0" departPos="5.10" departSpeed="0.00" departDelay="4.00" arrival="296.00" arrivalLane="757092064#1_1" arrivalPos="81.46" arrivalSpeed="19.81" duration="132.00" routeLength="213.54" waitingTime="93.00" waitingCount="3" stopTime="0.00" timeLoss="120.36" rerouteNo="0" devices="tripinfo_commuter_N_S.25" vType="car_commuter" speedFactor="1.04" vaporized=""/>
    <tripinfo id="commuter_N_S.27" depart="172.00" departLane="754598165#2_0" departPos="5.10" departSpeed="0.00" departDelay="4.00" arrival="296.00" arrivalLane="757092064#1_2" arrivalPos="81.46" arrivalSpeed="19.53" duration="124.00" routeLength="213.54" waitingTime="88.00" waitingCount="2" stopTime="0.00" timeLoss="112.63" rerouteNo="0" devices="tripinfo_commuter_N_S.27" vType="car_commuter" speedFactor="0.96" vaporized=""/>
    <tripinfo id="commuter_N_S.28" depart="182.00" departLane="754598165#2_0" departPos="5.10" departSpeed="0.00" departDelay="1.00" arrival="297.00" arrivalLane="757092064#1_0" arrivalPos="81.46" arrivalSpeed="18.51" duration="115.00" routeLength="213.54" waitingTime="87.00" waitingCount="2" stopTime="0.00" timeLoss="104.05" rerouteNo="0" devices="tripinfo_commuter_N_S.28" vType="car_commuter" speedFactor="1.02" vaporized=""/>
    <tripinfo id="commuter_N_S.29" depart="194.00" departLane="754598165#2_0" departPos="5.10" departSpeed="0.00" departDelay="1.00" arrival="297.00" arrivalLane="757092064#1_1" arrivalPos="81.46" arrivalSpeed="19.95" duration="103.00" routeLength="213.54" waitingTime="76.00" waitingCount="1" stopTime="0.00" timeLoss="91.92" rerouteNo="0" devices="tripinfo_commuter_N_S.29" vType="car_commuter" speedFactor="0.80" vaporized=""/>
    <tripinfo id="commuter_N_W.9" depart="171.00" departLane="754598165#2_0" departPos="5.10" departSpeed="0.00" departDelay="4.00" arrival="298.00" arrivalLane="978400303#0_3" arrivalPos="149.14" arrivalSpeed="18.78" duration="127.00" routeLength="273.05" waitingTime="89.00" waitingCount="2" stopTime="0.00" timeLoss="111.43" rerouteNo="0" devices="tripinfo_commuter_N_W.9" vType="car_commuter" speedFactor="1.08" vaporized=""/>
    <tripinfo id="commuter_N_S.30" depart="210.00" departLane="754598165#2_0" departPos="5.10" departSpeed="0.00" departDelay="7.00" arrival="299.00" arrivalLane="757092064#1_1" arrivalPos="81.46" arrivalSpeed="18.88" duration="89.00" routeLength="213.54" waitingTime="66.00" waitingCount="1" stopTime="0.00" timeLoss="77.97" rerouteNo="0" devices="tripinfo_commuter_N_S.30" vType="car_commuter" speedFactor="1.05" vaporized=""/>
    <tripinfo id="commuter_N_W.10" depart="176.00" departLane="754598165#2_0" departPos="5.10" departSpeed="0.00" departDelay="0.00" arrival="301.00" arrivalLane="978400303#0_3" arrivalPos="149.14" arrivalSpeed="19.50" duration="125.00" routeLength="273.05" waitingTime="90.00" waitingCount="3" stopTime="0.00" timeLoss="110.04" rerouteNo="0" devices="tripinfo_commuter_N_W.10" vType="car_commuter" speedFactor="1.01" vaporized=""/>
    <tripinfo id="commuter_N_S.31" depart="211.00" departLane="754598165#2_0" departPos="5.10" departSpeed="0.00" departDelay="6.00" arrival="301.00" arrivalLane="757092064#1_1" arrivalPos="81.46" arrivalSpeed="19.73" duration="90.00" routeLength="213.54" waitingTime="64.00" waitingCount="1" stopTime="0.00" timeLoss="78.55" rerouteNo="0" devices="tripinfo_commuter_N_S.31" vType="car_commuter" speedFactor="1.03" vaporized=""/>
    <tripinfo id="commuter_N_E.6" depart="168.00" departLane="754598165#2_0" departPos="5.10" departSpeed="0.00" departDelay="1.00" arrival="302.00" arrivalLane="563175146#1_0" arrivalPos="228.90" arrivalSpeed="19.40" duration="134.00" routeLength="331.30" waitingTime="92.00" waitingCount="3" stopTime="0.00" timeLoss="115.83" rerouteNo="0" devices="tripinfo_commuter_N_E.6" vType="car_commuter" speedFactor="0.99" vaporized=""/>
    <tripinfo id="commuter_N_W.11" depart="206.00" departLane="754598165#2_0" departPos="5.10" departSpeed="0.00" departDelay="9.00" arrival="304.00" arrivalLane="978400303#0_3" arrivalPos="149.14" arrivalSpeed="19.25" duration="98.00" routeLength="273.05" waitingTime="68.00" waitingCount="1" stopTime="0.00" timeLoss="82.09" rerouteNo="0" devices="tripinfo_commuter_N_W.11" vType="car_commuter" speedFactor="0.93" vaporized=""/>
    <tripinfo id="commuter_N_E.7" depart="185.00" departLane="754598165#2_0" departPos="5.10" departSpeed="0.00" departDelay="1.00" arrival="305.00" arrivalLane="563175146#1_0" arrivalPos="228.90" arrivalSpeed="19.49" duration="120.00" routeLength="331.30" waitingTime="83.00" waitingCount="2" stopTime="0.00" timeLoss="102.23" rerouteNo="0" devices="tripinfo_commuter_N_E.7" vType="car_commuter" speedFactor="0.99" vaporized=""/>