<?xml version="1.0" encoding="UTF-8"?>

<!-- generated on 2025-06-03 02:17:28 by Eclipse SUMO sumo Version 1.22.0
<sumoConfiguration xmlns:xsi="http://www.w3.org/2001/XMLSchema-instance" xsi:noNamespaceSchemaLocation="http://sumo.dlr.de/xsd/sumoConfiguration.xsd">

    <input>
        <net-file value="osm.net.xml"/>
        <route-files value="route.rou.xml"/>
        <additional-files value="osm.poly.xml.gz"/>
    </input>

    <output>
        <summary-output value="summary_eval_final_ep1.xml"/>
        <tripinfo-output value="tripinfo_eval_final_ep1.xml"/>
    </output>

    <time>
        <begin value="0"/>
        <end value="3600"/>
    </time>

    <processing>
        <time-to-teleport value="-1"/>
        <waiting-time-memory value="1000"/>
    </processing>

    <report>
        <verbose value="true"/>
        <duration-log.statistics value="true"/>
        <no-step-log value="true"/>
    </report>

    <traci_server>
        <remote-port value="62924"/>
    </traci_server>

    <random_number>
        <seed value="12250"/>
    </random_number>

</sumoConfiguration>
-->

<tripinfos xmlns:xsi="http://www.w3.org/2001/XMLSchema-instance" xsi:noNamespaceSchemaLocation="http://sumo.dlr.de/xsd/tripinfo_file.xsd">
    <tripinfo id="bg_E_S.0" depart="4.00" departLane="749662140#0_0" departPos="5.10" departSpeed="0.00" departDelay="0.00" arrival="23.00" arrivalLane="757092064#1_0" arrivalPos="81.46" arrivalSpeed="19.31" duration="19.00" routeLength="177.43" waitingTime="0.00" waitingCount="0" stopTime="0.00" timeLoss="8.05" rerouteNo="0" devices="tripinfo_bg_E_S.0" vType="car_commuter" speedFactor="0.95" vaporized=""/>
    <tripinfo id="bg_E_N.0" depart="15.00" departLane="749662140#0_0" departPos="5.10" departSpeed="0.00" departDelay="0.00" arrival="34.00" arrivalLane="749988360#0_2" arrivalPos="93.21" arrivalSpeed="19.78" duration="19.00" routeLength="241.59" waitingTime="0.00" waitingCount="0" stopTime="0.00" timeLoss="5.61" rerouteNo="0" devices="tripinfo_bg_E_N.0" vType="car_commuter" speedFactor="0.93" vaporized=""/>
    <tripinfo id="commuter_N_S.0" depart="4.00" departLane="754598165#2_0" departPos="5.10" departSpeed="0.00" departDelay="2.00" arrival="38.00" arrivalLane="757092064#1_0" arrivalPos="81.46" arrivalSpeed="19.90" duration="34.00" routeLength="213.54" waitingTime="9.00" waitingCount="1" stopTime="0.00" timeLoss="22.44" rerouteNo="0" devices="tripinfo_commuter_N_S.0" vType="car_commuter" speedFactor="1.15" vaporized=""/>
    <tripinfo id="commuter_N_S.1" depart="7.00" departLane="754598165#2_0" departPos="5.10" departSpeed="0.00" departDelay="4.00" arrival="38.00" arrivalLane="757092064#1_2" arrivalPos="81.46" arrivalSpeed="18.94" duration="31.00" routeLength="213.54" waitingTime="6.00" waitingCount="1" stopTime="0.00" timeLoss="20.04" rerouteNo="0" devices="tripinfo_commuter_N_S.1" vType="car_commuter" speedFactor="1.01" vaporized=""/>
    <tripinfo id="commuter_N_S.2" depart="11.00" departLane="754598165#2_0" departPos="5.10" departSpeed="0.00" departDelay="5.00" arrival="39.00" arrivalLane="757092064#1_0" arrivalPos="81.46" arrivalSpeed="19.48" duration="28.00" routeLength="213.54" waitingTime="5.00" waitingCount="1" stopTime="0.00" timeLoss="17.17" rerouteNo="0" devices="tripinfo_commuter_N_S.2" vType="car_commuter" speedFactor="0.88" vaporized=""/>
    <tripinfo id="commuter_N_S.3" depart="14.00" departLane="754598165#2_0" departPos="5.10" departSpeed="0.00" departDelay="5.00" arrival="39.00" arrivalLane="757092064#1_1" arrivalPos="81.46" arrivalSpeed="19.94" duration="25.00" routeLength="213.54" waitingTime="0.00" waitingCount="0" stopTime="0.00" timeLoss="14.04" rerouteNo="0" devices="tripinfo_commuter_N_S.3" vType="car_commuter" speedFactor="0.79" vaporized=""/>
    <tripinfo id="commuter_N_E.0" depart="1.00" departLane="754598165#2_0" departPos="5.10" departSpeed="0.00" departDelay="0.00" arrival="44.00" arrivalLane="563175146#1_0" arrivalPos="228.90" arrivalSpeed="19.61" duration="43.00" routeLength="331.30" waitingTime="13.00" waitingCount="1" stopTime="0.00" timeLoss="24.86" rerouteNo="0" devices="tripinfo_commuter_N_E.0" vType="car_commuter" speedFactor="0.99" vaporized=""/>
    <tripinfo id="commuter_N_W.0" depart="10.00" departLane="754598165#2_0" departPos="5.10" departSpeed="0.00" departDelay="5.00" arrival="44.00" arrivalLane="978400303#0_3" arrivalPos="149.14" arrivalSpeed="19.37" duration="34.00" routeLength="273.05" waitingTime="4.00" waitingCount="1" stopTime="0.00" timeLoss="18.28" rerouteNo="0" devices="tripinfo_commuter_N_W.0" vType="car_commuter" speedFactor="0.93" vaporized=""/>
    <tripinfo id="commuter_N_E.1" depart="17.00" departLane="754598165#2_0" departPos="5.10" departSpeed="0.00" departDelay="5.00" arrival="47.00" arrivalLane="563175146#1_0" arrivalPos="228.90" arrivalSpeed="18.83" duration="30.00" routeLength="331.30" waitingTime="1.00" waitingCount="1" stopTime="0.00" timeLoss="12.10" rerouteNo="0" devices="tripinfo_commuter_N_E.1" vType="car_commuter" speedFactor="1.05" vaporized=""/>
    <tripinfo id="bg_E_S.1" depart="19.00" departLane="749662140#0_0" departPos="5.10" departSpeed="0.00" departDelay="0.00" arrival="50.00" arrivalLane="757092064#1_0" arrivalPos="81.46" arrivalSpeed="19.11" duration="31.00" routeLength="177.43" waitingTime="9.00" waitingCount="1" stopTime="0.00" timeLoss="20.32" rerouteNo="0" devices="tripinfo_bg_E_S.1" vType="car_commuter" speedFactor="1.05" vaporized=""/>
    <tripinfo id="bg_E_N.1" depart="27.00" departLane="749662140#0_0" departPos="5.10" departSpeed="0.00" departDelay="0.00" arrival="52.00" arrivalLane="749988360#0_2" arrivalPos="93.21" arrivalSpeed="18.89" duration="25.00" routeLength="241.59" waitingTime="1.00" waitingCount="1" stopTime="0.00" timeLoss="12.48" rerouteNo="0" devices="tripinfo_bg_E_N.1" vType="car_commuter" speedFactor="1.14" vaporized=""/>
    <tripinfo id="commuter_N_S.4" depart="26.00" departLane="754598165#2_0" departPos="5.10" departSpeed="0.00" departDelay="10.00" arrival="99.00" arrivalLane="757092064#1_0" arrivalPos="81.46" arrivalSpeed="19.95" duration="73.00" routeLength="213.54" waitingTime="49.00" waitingCount="1" stopTime="0.00" timeLoss="62.33" rerouteNo="0" devices="tripinfo_commuter_N_S.4" vType="car_commuter" speedFactor="1.00" vaporized=""/>
    <tripinfo id="commuter_N_S.5" depart="32.00" departLane="754598165#2_0" departPos="5.10" departSpeed="0.00" departDelay="9.00" arrival="99.00" arrivalLane="757092064#1_1" arrivalPos="81.46" arrivalSpeed="19.94" duration="67.00" routeLength="213.54" waitingTime="43.00" waitingCount="1" stopTime="0.00" timeLoss="55.93" rerouteNo="0" devices="tripinfo_commuter_N_S.5" vType="car_commuter" speedFactor="1.15" vaporized=""/>
    <tripinfo id="commuter_N_S.6" depart="35.00" departLane="754598165#2_0" departPos="5.10" departSpeed="0.00" departDelay="6.00" arrival="101.00" arrivalLane="757092064#1_1" arrivalPos="81.46" arrivalSpeed="19.65" duration="66.00" routeLength="213.54" waitingTime="42.00" waitingCount="1" stopTime="0.00" timeLoss="55.06" rerouteNo="0" devices="tripinfo_commuter_N_S.6" vType="car_commuter" speedFactor="1.14" vaporized=""/>
    <tripinfo id="commuter_N_S.7" depart="39.00" departLane="754598165#2_0" departPos="5.10" departSpeed="0.00" departDelay="7.00" arrival="103.00" arrivalLane="757092064#1_1" arrivalPos="81.46" arrivalSpeed="19.40" duration="64.00" routeLength="213.54" waitingTime="41.00" waitingCount="1" stopTime="0.00" timeLoss="52.68" rerouteNo="0" devices="tripinfo_commuter_N_S.7" vType="car_commuter" speedFactor="1.06" vaporized=""/>
    <tripinfo id="commuter_N_S.9" depart="44.00" departLane="754598165#2_0" departPos="5.10" departSpeed="0.00" departDelay="9.00" arrival="103.00" arrivalLane="757092064#1_2" arrivalPos="81.46" arrivalSpeed="19.56" duration="59.00" routeLength="213.54" waitingTime="35.00" waitingCount="1" stopTime="0.00" timeLoss="47.54" rerouteNo="0" devices="tripinfo_commuter_N_S.9" vType="car_commuter" speedFactor="1.01" vaporized=""/>
    <tripinfo id="commuter_N_S.10" depart="50.00" departLane="754598165#2_0" departPos="5.10" departSpeed="0.00" departDelay="11.00" arrival="104.00" arrivalLane="757092064#1_1" arrivalPos="81.46" arrivalSpeed="19.38" duration="54.00" routeLength="213.54" waitingTime="31.00" waitingCount="1" stopTime="0.00" timeLoss="43.20" rerouteNo="0" devices="tripinfo_commuter_N_S.10" vType="car_commuter" speedFactor="1.01" vaporized=""/>
    <tripinfo id="commuter_N_S.11" depart="53.00" departLane="754598165#2_0" departPos="5.10" departSpeed="0.00" departDelay="13.00" arrival="104.00" arrivalLane="757092064#1_2" arrivalPos="81.46" arrivalSpeed="19.89" duration="51.00" routeLength="213.54" waitingTime="29.00" waitingCount="1" stopTime="0.00" timeLoss="40.26" rerouteNo="0" devices="tripinfo_commuter_N_S.11" vType="car_commuter" speedFactor="1.19" vaporized=""/>
    <tripinfo id="commuter_N_W.1" depart="38.00" departLane="754598165#2_0" departPos="5.10" departSpeed="0.00" departDelay="9.00" arrival="105.00" arrivalLane="978400303#0_3" arrivalPos="149.14" arrivalSpeed="19.36" duration="67.00" routeLength="273.05" waitingTime="40.00" waitingCount="1" stopTime="0.00" timeLoss="51.32" rerouteNo="0" devices="tripinfo_commuter_N_W.1" vType="car_commuter" speedFactor="0.91" vaporized=""/>
    <tripinfo id="commuter_N_S.8" depart="41.00" departLane="754598165#2_0" departPos="5.10" departSpeed="0.00" departDelay="8.00" arrival="105.00" arrivalLane="757092064#1_0" arrivalPos="81.46" arrivalSpeed="18.84" duration="64.00" routeLength="213.54" waitingTime="41.00" waitingCount="1" stopTime="0.00" timeLoss="52.85" rerouteNo="0" devices="tripinfo_commuter_N_S.8" vType="car_commuter" speedFactor="0.95" vaporized=""/>
    <tripinfo id="commuter_N_E.2" depart="20.00" departLane="754598165#2_0" departPos="5.10" departSpeed="0.00" departDelay="6.00" arrival="106.00" arrivalLane="563175146#1_0" arrivalPos="228.90" arrivalSpeed="19.72" duration="86.00" routeLength="331.30" waitingTime="52.00" waitingCount="1" stopTime="0.00" timeLoss="68.03" rerouteNo="0" devices="tripinfo_commuter_N_E.2" vType="car_commuter" speedFactor="0.98" vaporized=""/>
    <tripinfo id="commuter_N_S.13" depart="61.00" departLane="754598165#2_0" departPos="5.10" departSpeed="0.00" departDelay="14.00" arrival="106.00" arrivalLane="757092064#1_2" arrivalPos="81.46" arrivalSpeed="19.90" duration="45.00" routeLength="213.54" waitingTime="22.00" waitingCount="1" stopTime="0.00" timeLoss="34.12" rerouteNo="0" devices="tripinfo_commuter_N_S.13" vType="car_commuter" speedFactor="0.86" vaporized=""/>
    <tripinfo id="commuter_N_S.12" depart="59.00" departLane="754598165#2_0" departPos="5.10" departSpeed="0.00" departDelay="17.00" arrival="107.00" arrivalLane="757092064#1_1" arrivalPos="81.46" arrivalSpeed="19.12" duration="48.00" routeLength="213.54" waitingTime="24.00" waitingCount="1" stopTime="0.00" timeLoss="36.42" rerouteNo="0" devices="tripinfo_commuter_N_S.12" vType="car_commuter" speedFactor="1.07" vaporized=""/>
    <tripinfo id="commuter_N_E.3" depart="23.00" departLane="754598165#2_0" departPos="5.10" departSpeed="0.00" departDelay="8.00" arrival="108.00" arrivalLane="563175146#1_0" arrivalPos="228.90" arrivalSpeed="18.76" duration="85.00" routeLength="331.30" waitingTime="50.00" waitingCount="1" stopTime="0.00" timeLoss="67.28" rerouteNo="0" devices="tripinfo_commuter_N_E.3" vType="car_commuter" speedFactor="1.09" vaporized=""/>
    <tripinfo id="commuter_N_E.4" depart="29.00" departLane="754598165#2_0" departPos="5.10" departSpeed="0.00" departDelay="10.00" arrival="110.00" arrivalLane="563175146#1_0" arrivalPos="228.90" arrivalSpeed="18.72" duration="81.00" routeLength="331.30" waitingTime="49.00" waitingCount="1" stopTime="0.00" timeLoss="62.69" rerouteNo="0" devices="tripinfo_commuter_N_E.4" vType="car_commuter" speedFactor="0.84" vaporized=""/>
    <tripinfo id="bg_E_N.2" depart="50.00" departLane="749662140#0_0" departPos="5.10" departSpeed="0.00" departDelay="0.00" arrival="116.00" arrivalLane="749988360#0_2" arrivalPos="93.21" arrivalSpeed="19.11" duration="66.00" routeLength="241.59" waitingTime="40.00" waitingCount="1" stopTime="0.00" timeLoss="52.95" rerouteNo="0" devices="tripinfo_bg_E_N.2" vType="car_commuter" speedFactor="0.92" vaporized=""/>
    <tripinfo id="bg_E_S.2" depart="60.00" departLane="749662140#0_0" departPos="5.10" departSpeed="0.00" departDelay="0.00" arrival="117.00" arrivalLane="757092064#1_0" arrivalPos="81.46" arrivalSpeed="16.31" duration="57.00" routeLength="177.43" waitingTime="32.00" waitingCount="1" stopTime="0.00" timeLoss="46.83" rerouteNo="0" devices="tripinfo_bg_E_S.2" vType="car_commuter" speedFactor="0.97" vaporized=""/>
    <tripinfo id="bg_E_N.3" depart="73.00" departLane="749662140#0_0" departPos="5.10" departSpeed="0.00" departDelay="0.00" arrival="118.00" arrivalLane="749988360#0_2" arrivalPos="93.21" arrivalSpeed="18.93" duration="45.00" routeLength="241.59" waitingTime="19.00" waitingCount="1" stopTime="0.00" timeLoss="32.52" rerouteNo="0" devices="tripinfo_bg_E_N.3" vType="car_commuter" speedFactor="1.06" vaporized=""/>
    <tripinfo id="bg_E_W.1" depart="57.00" departLane="749662140#0_0" departPos="5.10" departSpeed="0.00" departDelay="0.00" arrival="119.00" arrivalLane="978400303#0_1" arrivalPos="149.14" arrivalSpeed="18.84" duration="62.00" routeLength="297.03" waitingTime="35.00" waitingCount="1" stopTime="0.00" timeLoss="46.98" rerouteNo="0" devices="tripinfo_bg_E_W.1" vType="car_commuter" speedFactor="0.92" vaporized=""/>
    <tripinfo id="bg_E_S.3" depart="86.00" departLane="749662140#0_0" departPos="5.10" departSpeed="0.00" departDelay="0.00" arrival="119.00" arrivalLane="757092064#1_0" arrivalPos="81.46" arrivalSpeed="18.79" duration="33.00" routeLength="177.43" waitingTime="8.00" waitingCount="1" stopTime="0.00" timeLoss="22.40" rerouteNo="0" devices="tripinfo_bg_E_S.3" vType="car_commuter" speedFactor="0.96" vaporized=""/>
    <tripinfo id="bg_E_W.0" depart="54.00" departLane="749662140#0_0" departPos="5.10" departSpeed="0.00" departDelay="0.00" arrival="120.00" arrivalLane="978400303#0_0" arrivalPos="149.14" arrivalSpeed="19.92" duration="66.00" routeLength="297.03" waitingTime="37.00" waitingCount="1" stopTime="0.00" timeLoss="50.51" rerouteNo="0" devices="tripinfo_bg_E_W.0" vType="car_commuter" speedFactor="1.04" vaporized=""/>
    <tripinfo id="commuter_N_S.14" depart="71.00" departLane="754598165#2_0" departPos="5.10" departSpeed="0.00" departDelay="11.00" arrival="126.00" arrivalLane="757092064#1_1" arrivalPos="81.46" arrivalSpeed="19.15" duration="55.00" routeLength="213.54" waitingTime="26.00" waitingCount="2" stopTime="0.00" timeLoss="43.64" rerouteNo="0" devices="tripinfo_commuter_N_S.14" vType="car_commuter" speedFactor="0.82" vaporized=""/>
    <tripinfo id="commuter_N_S.16" depart="101.00" departLane="754598165#2_0" departPos="5.10" departSpeed="0.00" departDelay="35.00" arrival="127.00" arrivalLane="757092064#1_2" arrivalPos="81.46" arrivalSpeed="19.86" duration="26.00" routeLength="213.54" waitingTime="2.00" waitingCount="1" stopTime="0.00" timeLoss="14.64" rerouteNo="0" devices="tripinfo_commuter_N_S.16" vType="car_commuter" speedFactor="1.08" vaporized=""/>
    <tripinfo id="commuter_N_S.15" depart="98.00" departLane="754598165#2_0" departPos="5.10" departSpeed="0.00" departDelay="34.00" arrival="128.00" arrivalLane="757092064#1_1" arrivalPos="81.46" arrivalSpeed="19.88" duration="30.00" routeLength="213.54" waitingTime="5.00" waitingCount="1" stopTime="0.00" timeLoss="18.40" rerouteNo="0" devices="tripinfo_commuter_N_S.15" vType="car_commuter" speedFactor="1.10" vaporized=""/>
    <tripinfo id="commuter_N_S.18" depart="107.00" departLane="754598165#2_0" departPos="5.10" departSpeed="0.00" departDelay="27.00" arrival="128.00" arrivalLane="757092064#1_2" arrivalPos="81.46" arrivalSpeed="18.84" duration="21.00" routeLength="213.54" waitingTime="0.00" waitingCount="0" stopTime="0.00" timeLoss="10.19" rerouteNo="0" devices="tripinfo_commuter_N_S.18" vType="car_commuter" speedFactor="0.89" vaporized=""/>
    <tripinfo id="commuter_N_W.2" depart="64.00" departLane="754598165#2_0" departPos="5.10" departSpeed="0.00" departDelay="17.00" arrival="129.00" arrivalLane="978400303#0_3" arrivalPos="149.14" arrivalSpeed="19.25" duration="65.00" routeLength="273.05" waitingTime="32.00" waitingCount="2" stopTime="0.00" timeLoss="49.56" rerouteNo="0" devices="tripinfo_commuter_N_W.2" vType="car_commuter" speedFactor="0.99" vaporized=""/>
    <tripinfo id="commuter_N_S.17" depart="104.00" departLane="754598165#2_0" departPos="5.10" departSpeed="0.00" departDelay="32.00" arrival="129.00" arrivalLane="757092064#1_1" arrivalPos="81.46" arrivalSpeed="18.97" duration="25.00" routeLength="213.54" waitingTime="2.00" waitingCount="1" stopTime="0.00" timeLoss="13.97" rerouteNo="0" devices="tripinfo_commuter_N_S.17" vType="car_commuter" speedFactor="0.93" vaporized=""/>
    <tripinfo id="commuter_N_E.5" depart="47.00" departLane="754598165#2_0" departPos="5.10" departSpeed="0.00" departDelay="10.00" arrival="132.00" arrivalLane="563175146#1_0" arrivalPos="228.90" arrivalSpeed="18.86" duration="85.00" routeLength="331.30" waitingTime="48.00" waitingCount="2" stopTime="0.00" timeLoss="67.54" rerouteNo="0" devices="tripinfo_commuter_N_E.5" vType="car_commuter" speedFactor="1.01" vaporized=""/>
    <tripinfo id="commuter_N_E.6" depart="56.00" departLane="754598165#2_0" departPos="5.10" departSpeed="0.00" departDelay="15.00" arrival="134.00" arrivalLane="563175146#1_0" arrivalPos="228.90" arrivalSpeed="19.31" duration="78.00" routeLength="331.30" waitingTime="40.00" waitingCount="2" stopTime="0.00" timeLoss="60.19" rerouteNo="0" devices="tripinfo_commuter_N_E.6" vType="car_commuter" speedFactor="0.95" vaporized=""/>
    <tripinfo id="bg_E_S.4" depart="116.00" departLane="749662140#0_0" departPos="5.10" departSpeed="0.00" departDelay="0.00" arrival="162.00" arrivalLane="757092064#1_0" arrivalPos="81.46" arrivalSpeed="17.76" duration="46.00" routeLength="177.43" waitingTime="24.00" waitingCount="1" stopTime="0.00" timeLoss="35.19" rerouteNo="0" devices="tripinfo_bg_E_S.4" vType="car_commuter" speedFactor="0.92" vaporized=""/>
    <tripinfo id="bg_E_N.4" depart="125.00" departLane="749662140#0_0" departPos="5.10" departSpeed="0.00" departDelay="0.00" arrival="165.00" arrivalLane="749988360#0_2" arrivalPos="93.21" arrivalSpeed="19.44" duration="40.00" routeLength="241.59" waitingTime="14.00" waitingCount="1" stopTime="0.00" timeLoss="26.66" rerouteNo="0" devices="tripinfo_bg_E_N.4" vType="car_commuter" speedFactor="0.80" vaporized=""/>
    <tripinfo id="bg_E_W.2" depart="126.00" departLane="749662140#0_0" departPos="5.10" departSpeed="0.00" departDelay="0.00" arrival="167.00" arrivalLane="978400303#0_0" arrivalPos="149.14" arrivalSpeed="18.85" duration="41.00" routeLength="297.03" waitingTime="13.00" waitingCount="1" stopTime="0.00" timeLoss="25.52" rerouteNo="0" devices="tripinfo_bg_E_W.2" vType="car_commuter" speedFactor="1.03" vaporized=""/>
    <tripinfo id="commuter_N_S.19" depart="110.00" departLane="754598165#2_0" departPos="5.10" departSpeed="0.00" departDelay="28.00" arrival="218.00" arrivalLane="757092064#1_1" arrivalPos="81.46" arrivalSpeed="19.14" duration="108.00" routeLength="213.54" waitingTime="81.00" waitingCount="1" stopTime="0.00" timeLoss="96.41" rerouteNo="0" devices="tripinfo_commuter_N_S.19" vType="car_commuter" speedFactor="1.11" vaporized=""/>
    <tripinfo id="commuter_N_S.20" depart="113.00" departLane="754598165#2_0" departPos="5.10" departSpeed="0.00" departDelay="26.00" arrival="218.00" arrivalLane="757092064#1_2" arrivalPos="81.46" arrivalSpeed="19.11" duration="105.00" routeLength="213.54" waitingTime="80.00" waitingCount="1" stopTime="0.00" timeLoss="93.50" rerouteNo="0" devices="tripinfo_commuter_N_S.20" vType="car_commuter" speedFactor="0.99" vaporized=""/>
    <tripinfo id="commuter_N_S.22" depart="119.00" departLane="754598165#2_0" departPos="5.10" departSpeed="0.00" departDelay="27.00" arrival="219.00" arrivalLane="757092064#1_2" arrivalPos="81.46" arrivalSpeed="19.14" duration="100.00" routeLength="213.54" waitingTime="75.00" waitingCount="1" stopTime="0.00" timeLoss="89.06" rerouteNo="0" devices="tripinfo_commuter_N_S.22" vType="car_commuter" speedFactor="1.00" vaporized=""/>
    <tripinfo id="commuter_N_S.21" depart="116.00" departLane="754598165#2_0" departPos="5.10" departSpeed="0.00" departDelay="28.00" arrival="220.00" arrivalLane="757092064#1_1" arrivalPos="81.46" arrivalSpeed="19.14" duration="104.00" routeLength="213.54" waitingTime="79.00" waitingCount="1" stopTime="0.00" timeLoss="92.39" rerouteNo="0" devices="tripinfo_commuter_N_S.21" vType="car_commuter" speedFactor="0.90" vaporized=""/>
    <tripinfo id="commuter_N_S.25" depart="128.00" departLane="754598165#2_0" departPos="5.10" departSpeed="0.00" departDelay="30.00" arrival="221.00" arrivalLane="757092064#1_2" arrivalPos="81.46" arrivalSpeed="18.88" duration="93.00" routeLength="213.54" waitingTime="68.00" waitingCount="1" stopTime="0.00" timeLoss="82.02" rerouteNo="0" devices="tripinfo_commuter_N_S.25" vType="car_commuter" speedFactor="0.86" vaporized=""/>
    <tripinfo id="commuter_N_S.23" depart="122.00" departLane="754598165#2_0" departPos="5.10" departSpeed="0.00" departDelay="28.00" arrival="222.00" arrivalLane="757092064#1_1" arrivalPos="81.46" arrivalSpeed="19.70" duration="100.00" routeLength="213.54" waitingTime="75.00" waitingCount="1" stopTime="0.00" timeLoss="88.43" rerouteNo="0" devices="tripinfo_commuter_N_S.23" vType="car_commuter" speedFactor="1.09" vaporized=""/>
    <tripinfo id="commuter_N_S.24" depart="125.00" departLane="754598165#2_0" departPos="5.10" departSpeed="0.00" departDelay="30.00" arrival="223.00" arrivalLane="757092064#1_0" arrivalPos="81.46" arrivalSpeed="19.99" duration="98.00" routeLength="213.54" waitingTime="75.00" waitingCount="1" stopTime="0.00" timeLoss="86.91" rerouteNo="0" devices="tripinfo_commuter_N_S.24" vType="car_commuter" speedFactor="1.00" vaporized=""/>
    <tripinfo id="commuter_N_S.26" depart="134.00" departLane="754598165#2_0" departPos="5.10" departSpeed="0.00" departDelay="28.00" arrival="223.00" arrivalLane="757092064#1_1" arrivalPos="81.46" arrivalSpeed="19.68" duration="89.00" routeLength="213.54" waitingTime="66.00" waitingCount="1" stopTime="0.00" timeLoss="78.21" rerouteNo="0" devices="tripinfo_commuter_N_S.26" vType="car_commuter" speedFactor="0.86" vaporized=""/>
    <tripinfo id="commuter_N_S.27" depart="140.00" departLane="754598165#2_0" departPos="5.10" departSpeed="0.00" departDelay="27.00" arrival="223.00" arrivalLane="757092064#1_2" arrivalPos="81.46" arrivalSpeed="18.97" duration="83.00" routeLength="213.54" waitingTime="58.00" waitingCount="1" stopTime="0.00" timeLoss="71.81" rerouteNo="0" devices="tripinfo_commuter_N_S.27" vType="car_commuter" speedFactor="1.02" vaporized=""/>
    <tripinfo id="commuter_N_E.7" depart="65.00" departLane="754598165#2_0" departPos="5.10" departSpeed="0.00" departDelay="15.00" arrival="225.00" arrivalLane="563175146#1_0" arrivalPos="228.90" arrivalSpeed="19.85" duration="160.00" routeLength="331.30" waitingTime="117.00" waitingCount="3" stopTime="0.00" timeLoss="141.92" rerouteNo="0" devices="tripinfo_commuter_N_E.7" vType="car_commuter" speedFactor="0.99" vaporized=""/>
    <tripinfo id="commuter_N_E.8" depart="68.00" departLane="754598165#2_0" departPos="5.10" departSpeed="0.00" departDelay="14.00" arrival="227.00" arrivalLane="563175146#1_0" arrivalPos="228.90" arrivalSpeed="19.56" duration="159.00" routeLength="331.30" waitingTime="115.00" waitingCount="3" stopTime="0.00" timeLoss="140.02" rerouteNo="0" devices="tripinfo_commuter_N_E.8" vType="car_commuter" speedFactor="0.79" vaporized=""/>
    <tripinfo id="commuter_N_E.9" depart="72.00" departLane="754598165#2_0" departPos="5.10" departSpeed="0.00" departDelay="11.00" arrival="228.00" arrivalLane="563175146#1_0" arrivalPos="228.90" arrivalSpeed="19.77" duration="156.00" routeLength="331.30" waitingTime="114.00" waitingCount="3" stopTime="0.00" timeLoss="138.03" rerouteNo="0" devices="tripinfo_commuter_N_E.9" vType="car_commuter" speedFactor="0.88" vaporized=""/>
    <tripinfo id="bg_E_S.5" depart="183.00" departLane="749662140#0_0" departPos="5.10" departSpeed="0.00" departDelay="0.00" arrival="234.00" arrivalLane="757092064#1_0" arrivalPos="81.46" arrivalSpeed="18.91" duration="51.00" routeLength="177.43" waitingTime="29.00" waitingCount="1" stopTime="0.00" timeLoss="40.07" rerouteNo="0" devices="tripinfo_bg_E_S.5" vType="car_commuter" speedFactor="0.94" vaporized=""/>
    <tripinfo id="bg_E_N.5" depart="190.00" departLane="749662140#0_0" departPos="5.10" departSpeed="0.00" departDelay="3.00" arrival="234.00" arrivalLane="749988360#0_2" arrivalPos="93.21" arrivalSpeed="19.67" duration="44.00" routeLength="241.59" waitingTime="18.00" waitingCount="1" stopTime="0.00" timeLoss="31.16" rerouteNo="0" devices="tripinfo_bg_E_N.5" vType="car_commuter" speedFactor="0.93" vaporized=""/>
    <tripinfo id="bg_E_W.3" depart="158.00" departLane="749662140#0_0" departPos="5.10" departSpeed="0.00" departDelay="0.00" arrival="236.00" arrivalLane="978400303#0_0" arrivalPos="149.14" arrivalSpeed="19.75" duration="78.00" routeLength="297.03" waitingTime="51.00" waitingCount="1" stopTime="0.00" timeLoss="62.94" rerouteNo="0" devices="tripinfo_bg_E_W.3" vType="car_commuter" speedFactor="1.25" vaporized=""/>
    <tripinfo id="bg_E_S.6" depart="202.00" departLane="749662140#0_0" departPos="5.10" departSpeed="0.00" departDelay="0.00" arrival="236.00" arrivalLane="757092064#1_0" arrivalPos="81.46" arrivalSpeed="18.21" duration="34.00" routeLength="177.43" waitingTime="10.00" waitingCount="1" stopTime="0.00" timeLoss="23.82" rerouteNo="0" devices="tripinfo_bg_E_S.6" vType="car_commuter" speedFactor="1.05" vaporized=""/>
    <tripinfo id="bg_E_W.5" depart="187.00" departLane="749662140#0_0" departPos="5.10" departSpeed="0.00" departDelay="0.00" arrival="237.00" arrivalLane="978400303#0_2" arrivalPos="149.14" arrivalSpeed="19.81" duration="50.00" routeLength="297.03" waitingTime="22.00" waitingCount="1" stopTime="0.00" timeLoss="34.44" rerouteNo="0" devices="tripinfo_bg_E_W.5" vType="car_commuter" speedFactor="0.96" vaporized=""/>
    <tripinfo id="bg_E_W.4" depart="169.00" departLane="749662140#0_0" departPos="5.10" departSpeed="0.00" departDelay="0.00" arrival="238.00" arrivalLane="978400303#0_0" arrivalPos="149.14" arrivalSpeed="19.99" duration="69.00" routeLength="297.03" waitingTime="40.00" waitingCount="1" stopTime="0.00" timeLoss="53.60" rerouteNo="0" devices="tripinfo_bg_E_W.4" vType="car_commuter" speedFactor="0.97" vaporized=""/>
    <tripinfo id="bg_E_S.7" depart="205.00" departLane="749662140#0_0" departPos="5.10" departSpeed="0.00" departDelay="0.00" arrival="239.00" arrivalLane="757092064#1_0" arrivalPos="81.46" arrivalSpeed="18.83" duration="34.00" routeLength="177.43" waitingTime="10.00" waitingCount="1" stopTime="0.00" timeLoss="22.98" rerouteNo="0" devices="tripinfo_bg_E_S.7" vType="car_commuter" speedFactor="1.00" vaporized=""/>
    <tripinfo id="commuter_N_S.28" depart="143.00" departLane="754598165#2_0" departPos="5.10" departSpeed="0.00" departDelay="29.00" arrival="244.00" arrivalLane="757092064#1_0" arrivalPos="81.46" arrivalSpeed="18.75" duration="101.00" routeLength="213.54" waitingTime="70.00" waitingCount="2" stopTime="0.00" timeLoss="89.78" rerouteNo="0" devices="tripinfo_commuter_N_S.28" vType="car_commuter" speedFactor="1.09" vaporized=""/>
    <tripinfo id="commuter_N_S.29" depart="146.00" departLane="754598165#2_0" departPos="5.10" departSpeed="0.00" departDelay="29.00" arrival="244.00" arrivalLane="757092064#1_2" arrivalPos="81.46" arrivalSpeed="18.79" duration="98.00" routeLength="213.54" waitingTime="67.00" waitingCount="2" stopTime="0.00" timeLoss="87.05" rerouteNo="0" devices="tripinfo_commuter_N_S.29" vType="car_commuter" speedFactor="1.13" vaporized=""/>
    <tripinfo id="commuter_N_S.30" depart="149.00" departLane="754598165#2_0" departPos="5.10" departSpeed="0.00" departDelay="19.00" arrival="246.00" arrivalLane="757092064#1_1" arrivalPos="81.46" arrivalSpeed="19.03" duration="97.00" routeLength="213.54" waitingTime="66.00" waitingCount="2" stopTime="0.00" timeLoss="85.87" rerouteNo="0" devices="tripinfo_commuter_N_S.30" vType="car_commuter" speedFactor="1.08" vaporized=""/>
    <tripinfo id="commuter_N_S.32" depart="157.00" departLane="754598165#2_0" departPos="5.10" departSpeed="0.00" departDelay="25.00" arrival="246.00" arrivalLane="757092064#1_2" arrivalPos="81.46" arrivalSpeed="18.77" duration="89.00" routeLength="213.54" waitingTime="57.00" waitingCount="2" stopTime="0.00" timeLoss="77.67" rerouteNo="0" devices="tripinfo_commuter_N_S.32" vType="car_commuter" speedFactor="0.82" vaporized=""/>
    <tripinfo id="commuter_N_E.10" depart="131.00" departLane="754598165#2_0" departPos="5.10" departSpeed="0.00" departDelay="31.00" arrival="250.00" arrivalLane="563175146#1_0" arrivalPos="228.90" arrivalSpeed="19.12" duration="119.00" routeLength="331.30" waitingTime="80.00" waitingCount="2" stopTime="0.00" timeLoss="101.01" rerouteNo="0" devices="tripinfo_commuter_N_E.10" vType="car_commuter" speedFactor="1.03" vaporized=""/>
    <tripinfo id="commuter_N_E.11" depart="137.00" departLane="754598165#2_0" departPos="5.10" departSpeed="0.00" departDelay="25.00" arrival="251.00" arrivalLane="563175146#1_0" arrivalPos="228.90" arrivalSpeed="19.06" duration="114.00" routeLength="331.30" waitingTime="78.00" waitingCount="2" stopTime="0.00" timeLoss="96.77" rerouteNo="0" devices="tripinfo_commuter_N_E.11" vType="car_commuter" speedFactor="1.04" vaporized=""/>