<?xml version="1.0" encoding="UTF-8"?>

<!-- generated on 2025-06-02 21:26:25 by Eclipse SUMO GUI Version 1.22.0
<sumoConfiguration xmlns:xsi="http://www.w3.org/2001/XMLSchema-instance" xsi:noNamespaceSchemaLocation="http://sumo.dlr.de/xsd/sumoConfiguration.xsd">

    <input>
        <net-file value="osm.net.xml"/>
        <route-files value="route.rou.xml"/>
    </input>

    <output>
        <summary-output value="summary_eval_offline_ep1.xml"/>
        <tripinfo-output value="tripinfo_eval_offline_ep1.xml"/>
    </output>

    <time>
        <step-length value="0.1"/>
    </time>

    <processing>
        <time-to-teleport value="-1"/>
        <waiting-time-memory value="1000"/>
    </processing>

    <report>
        <no-step-log value="true"/>
    </report>

    <traci_server>
        <remote-port value="65275"/>
    </traci_server>

    <random_number>
        <seed value="27991"/>
    </random_number>

</sumoConfiguration>
-->

<tripinfos xmlns:xsi="http://www.w3.org/2001/XMLSchema-instance" xsi:noNamespaceSchemaLocation="http://sumo.dlr.de/xsd/tripinfo_file.xsd">
    <tripinfo id="commuter_N_S.0" depart="7.30" departLane="754598165#2_0" departPos="5.10" departSpeed="0.00" departDelay="0.00" arrival="140.30" arrivalLane="757092064#1_1" arrivalPos="81.46" arrivalSpeed="19.91" duration="133.00" routeLength="213.54" waitingTime="111.20" waitingCount="1" stopTime="0.00" timeLoss="122.32" rerouteNo="0" devices="tripinfo_commuter_N_S.0" vType="car_commuter" speedFactor="0.89" vaporized=""/>
    <tripinfo id="commuter_N_S.2" depart="16.50" departLane="754598165#2_0" departPos="5.10" departSpeed="0.00" departDelay="0.10" arrival="140.50" arrivalLane="757092064#1_2" arrivalPos="81.46" arrivalSpeed="19.92" duration="124.00" routeLength="213.54" waitingTime="100.90" waitingCount="1" stopTime="0.00" timeLoss="113.25" rerouteNo="0" devices="tripinfo_commuter_N_S.2" vType="car_commuter" speedFactor="1.12" vaporized=""/>
    <tripinfo id="commuter_N_S.1" depart="13.90" departLane="754598165#2_0" departPos="5.10" departSpeed="0.00" departDelay="0.00" arrival="141.40" arrivalLane="757092064#1_0" arrivalPos="81.46" arrivalSpeed="19.97" duration="127.50" routeLength="213.54" waitingTime="101.90" waitingCount="1" stopTime="0.00" timeLoss="116.77" rerouteNo="0" devices="tripinfo_commuter_N_S.1" vType="car_commuter" speedFactor="0.95" vaporized=""/>
    <tripinfo id="commuter_N_S.3" depart="19.20" departLane="754598165#2_0" departPos="5.10" departSpeed="0.00" departDelay="1.10" arrival="141.70" arrivalLane="757092064#1_1" arrivalPos="81.46" arrivalSpeed="19.98" duration="122.50" routeLength="213.54" waitingTime="96.60" waitingCount="1" stopTime="0.00" timeLoss="111.76" rerouteNo="0" devices="tripinfo_commuter_N_S.3" vType="car_commuter" speedFactor="0.73" vaporized=""/>
    <tripinfo id="commuter_N_S.4" depart="21.90" departLane="754598165#2_0" departPos="5.10" departSpeed="0.00" departDelay="3.20" arrival="142.60" arrivalLane="757092064#1_0" arrivalPos="81.46" arrivalSpeed="19.88" duration="120.70" routeLength="213.54" waitingTime="95.00" waitingCount="1" stopTime="0.00" timeLoss="109.98" rerouteNo="0" devices="tripinfo_commuter_N_S.4" vType="car_commuter" speedFactor="0.96" vaporized=""/>
    <tripinfo id="commuter_N_S.6" depart="34.10" departLane="754598165#2_0" departPos="5.10" departSpeed="0.00" departDelay="2.70" arrival="142.80" arrivalLane="757092064#1_2" arrivalPos="81.46" arrivalSpeed="19.88" duration="108.70" routeLength="213.54" waitingTime="82.20" waitingCount="1" stopTime="0.00" timeLoss="97.95" rerouteNo="0" devices="tripinfo_commuter_N_S.6" vType="car_commuter" speedFactor="1.05" vaporized=""/>
    <tripinfo id="commuter_N_S.5" depart="31.50" departLane="754598165#2_0" departPos="5.10" departSpeed="0.00" departDelay="0.50" arrival="142.90" arrivalLane="757092064#1_1" arrivalPos="81.46" arrivalSpeed="19.96" duration="111.40" routeLength="213.54" waitingTime="85.40" waitingCount="1" stopTime="0.00" timeLoss="100.67" rerouteNo="0" devices="tripinfo_commuter_N_S.5" vType="car_commuter" speedFactor="0.93" vaporized=""/>
    <tripinfo id="commuter_N_S.8" depart="41.50" departLane="754598165#2_0" departPos="5.10" departSpeed="0.00" departDelay="4.60" arrival="144.00" arrivalLane="757092064#1_2" arrivalPos="81.46" arrivalSpeed="19.99" duration="102.50" routeLength="213.54" waitingTime="75.70" waitingCount="1" stopTime="0.00" timeLoss="91.77" rerouteNo="0" devices="tripinfo_commuter_N_S.8" vType="car_commuter" speedFactor="1.05" vaporized=""/>
    <tripinfo id="commuter_N_S.7" depart="39.40" departLane="754598165#2_0" departPos="5.10" departSpeed="0.00" departDelay="2.80" arrival="144.20" arrivalLane="757092064#1_1" arrivalPos="81.46" arrivalSpeed="19.99" duration="104.80" routeLength="213.54" waitingTime="78.70" waitingCount="1" stopTime="0.00" timeLoss="94.04" rerouteNo="0" devices="tripinfo_commuter_N_S.7" vType="car_commuter" speedFactor="1.19" vaporized=""/>
    <tripinfo id="commuter_N_W.0" depart="24.50" departLane="754598165#2_0" departPos="5.10" departSpeed="0.00" departDelay="5.50" arrival="144.80" arrivalLane="978400303#0_3" arrivalPos="149.14" arrivalSpeed="19.93" duration="120.30" routeLength="273.05" waitingTime="91.20" waitingCount="1" stopTime="0.00" timeLoss="105.52" rerouteNo="0" devices="tripinfo_commuter_N_W.0" vType="car_commuter" speedFactor="1.11" vaporized=""/>
    <tripinfo id="commuter_N_S.9" depart="44.20" departLane="754598165#2_0" departPos="5.10" departSpeed="0.00" departDelay="4.70" arrival="145.40" arrivalLane="757092064#1_1" arrivalPos="81.46" arrivalSpeed="19.93" duration="101.20" routeLength="213.54" waitingTime="75.10" waitingCount="1" stopTime="0.00" timeLoss="90.46" rerouteNo="0" devices="tripinfo_commuter_N_S.9" vType="car_commuter" speedFactor="0.94" vaporized=""/>
    <tripinfo id="commuter_N_S.10" depart="45.70" departLane="754598165#2_0" departPos="5.10" departSpeed="0.00" departDelay="3.10" arrival="146.20" arrivalLane="757092064#1_0" arrivalPos="81.46" arrivalSpeed="19.91" duration="100.50" routeLength="213.54" waitingTime="75.20" waitingCount="1" stopTime="0.00" timeLoss="89.78" rerouteNo="0" devices="tripinfo_commuter_N_S.10" vType="car_commuter" speedFactor="0.83" vaporized=""/>
    <tripinfo id="commuter_N_S.12" depart="63.70" departLane="754598165#2_0" departPos="5.10" departSpeed="0.00" departDelay="0.00" arrival="146.20" arrivalLane="757092064#1_2" arrivalPos="81.46" arrivalSpeed="19.93" duration="82.50" routeLength="213.54" waitingTime="55.80" waitingCount="1" stopTime="0.00" timeLoss="71.73" rerouteNo="0" devices="tripinfo_commuter_N_S.12" vType="car_commuter" speedFactor="0.88" vaporized=""/>
    <tripinfo id="commuter_N_E.0" depart="1.60" departLane="754598165#2_0" departPos="5.10" departSpeed="0.00" departDelay="0.00" arrival="146.40" arrivalLane="563175146#1_0" arrivalPos="228.90" arrivalSpeed="19.98" duration="144.80" routeLength="331.30" waitingTime="116.90" waitingCount="1" stopTime="0.00" timeLoss="126.79" rerouteNo="0" devices="tripinfo_commuter_N_E.0" vType="car_commuter" speedFactor="0.82" vaporized=""/>
    <tripinfo id="commuter_N_S.11" depart="62.30" departLane="754598165#2_0" departPos="5.10" departSpeed="0.00" departDelay="0.00" arrival="146.60" arrivalLane="757092064#1_1" arrivalPos="81.46" arrivalSpeed="19.92" duration="84.30" routeLength="213.54" waitingTime="58.60" waitingCount="1" stopTime="0.00" timeLoss="73.59" rerouteNo="0" devices="tripinfo_commuter_N_S.11" vType="car_commuter" speedFactor="0.93" vaporized=""/>
    <tripinfo id="commuter_N_S.14" depart="75.90" departLane="754598165#2_0" departPos="5.10" departSpeed="0.00" departDelay="0.00" arrival="147.40" arrivalLane="757092064#1_2" arrivalPos="81.46" arrivalSpeed="19.99" duration="71.50" routeLength="213.54" waitingTime="46.70" waitingCount="1" stopTime="0.00" timeLoss="60.78" rerouteNo="0" devices="tripinfo_commuter_N_S.14" vType="car_commuter" speedFactor="0.78" vaporized=""/>
    <tripinfo id="commuter_N_W.1" depart="48.30" departLane="754598165#2_0" departPos="5.10" departSpeed="0.00" departDelay="4.60" arrival="148.80" arrivalLane="978400303#0_3" arrivalPos="149.14" arrivalSpeed="19.99" duration="100.50" routeLength="273.05" waitingTime="71.00" waitingCount="1" stopTime="0.00" timeLoss="85.53" rerouteNo="0" devices="tripinfo_commuter_N_W.1" vType="car_commuter" speedFactor="1.06" vaporized=""/>
    <tripinfo id="commuter_N_E.1" depart="28.90" departLane="754598165#2_0" departPos="5.10" departSpeed="0.00" departDelay="0.00" arrival="149.70" arrivalLane="563175146#1_0" arrivalPos="228.90" arrivalSpeed="19.93" duration="120.80" routeLength="331.30" waitingTime="89.20" waitingCount="1" stopTime="0.00" timeLoss="103.40" rerouteNo="0" devices="tripinfo_commuter_N_E.1" vType="car_commuter" speedFactor="1.02" vaporized=""/>
    <tripinfo id="commuter_N_E.2" depart="36.70" departLane="754598165#2_0" departPos="5.10" departSpeed="0.00" departDelay="0.70" arrival="151.10" arrivalLane="563175146#1_0" arrivalPos="228.90" arrivalSpeed="19.97" duration="114.40" routeLength="331.30" waitingTime="82.60" waitingCount="1" stopTime="0.00" timeLoss="97.20" rerouteNo="0" devices="tripinfo_commuter_N_E.2" vType="car_commuter" speedFactor="1.14" vaporized=""/>
    <tripinfo id="commuter_N_E.3" depart="52.90" departLane="754598165#2_0" departPos="5.10" departSpeed="0.00" departDelay="0.00" arrival="153.30" arrivalLane="563175146#1_0" arrivalPos="228.90" arrivalSpeed="19.95" duration="100.40" routeLength="331.30" waitingTime="69.50" waitingCount="1" stopTime="0.00" timeLoss="83.23" rerouteNo="0" devices="tripinfo_commuter_N_E.3" vType="car_commuter" speedFactor="1.11" vaporized=""/>
    <tripinfo id="bg_E_S.0" depart="69.80" departLane="749662140#0_0" departPos="5.10" departSpeed="0.00" departDelay="0.00" arrival="155.70" arrivalLane="757092064#1_0" arrivalPos="81.46" arrivalSpeed="18.70" duration="85.90" routeLength="177.43" waitingTime="60.60" waitingCount="1" stopTime="0.00" timeLoss="75.94" rerouteNo="0" devices="tripinfo_bg_E_S.0" vType="car_commuter" speedFactor="1.03" vaporized=""/>
    <tripinfo id="bg_E_N.0" depart="129.10" departLane="749662140#0_0" departPos="5.10" departSpeed="0.00" departDelay="0.00" arrival="158.30" arrivalLane="749988360#0_2" arrivalPos="93.21" arrivalSpeed="19.98" duration="29.20" routeLength="241.59" waitingTime="1.20" waitingCount="1" stopTime="0.00" timeLoss="16.93" rerouteNo="0" devices="tripinfo_bg_E_N.0" vType="car_commuter" speedFactor="1.09" vaporized=""/>
    <tripinfo id="bg_E_S.1" depart="120.40" departLane="749662140#0_0" departPos="5.10" departSpeed="0.00" departDelay="1.90" arrival="159.10" arrivalLane="757092064#1_0" arrivalPos="81.46" arrivalSpeed="19.25" duration="38.70" routeLength="177.43" waitingTime="12.10" waitingCount="1" stopTime="0.00" timeLoss="28.87" rerouteNo="0" devices="tripinfo_bg_E_S.1" vType="car_commuter" speedFactor="1.10" vaporized=""/>
    <tripinfo id="bg_E_W.0" depart="45.50" departLane="749662140#0_0" departPos="5.10" departSpeed="0.00" departDelay="0.00" arrival="159.80" arrivalLane="978400303#0_0" arrivalPos="149.14" arrivalSpeed="19.95" duration="114.30" routeLength="297.03" waitingTime="87.70" waitingCount="1" stopTime="0.00" timeLoss="99.39" rerouteNo="0" devices="tripinfo_bg_E_W.0" vType="car_commuter" speedFactor="0.96" vaporized=""/>
    <tripinfo id="bg_E_W.1" depart="57.20" departLane="749662140#0_0" departPos="5.10" departSpeed="0.00" departDelay="0.00" arrival="159.80" arrivalLane="978400303#0_1" arrivalPos="149.14" arrivalSpeed="19.91" duration="102.60" routeLength="297.03" waitingTime="75.90" waitingCount="1" stopTime="0.00" timeLoss="87.66" rerouteNo="0" devices="tripinfo_bg_E_W.1" vType="car_commuter" speedFactor="1.10" vaporized=""/>
    <tripinfo id="bg_E_W.2" depart="72.40" departLane="749662140#0_0" departPos="5.10" departSpeed="0.00" departDelay="1.50" arrival="159.90" arrivalLane="978400303#0_2" arrivalPos="149.14" arrivalSpeed="19.93" duration="87.50" routeLength="297.03" waitingTime="60.80" waitingCount="1" stopTime="0.00" timeLoss="72.57" rerouteNo="0" devices="tripinfo_bg_E_W.2" vType="car_commuter" speedFactor="1.02" vaporized=""/>
    <tripinfo id="bg_E_W.5" depart="117.80" departLane="749662140#0_0" departPos="5.10" departSpeed="0.00" departDelay="0.00" arrival="160.00" arrivalLane="978400303#0_3" arrivalPos="149.14" arrivalSpeed="19.97" duration="42.20" routeLength="297.03" waitingTime="15.30" waitingCount="1" stopTime="0.00" timeLoss="27.27" rerouteNo="0" devices="tripinfo_bg_E_W.5" vType="car_commuter" speedFactor="1.22" vaporized=""/>
    <tripinfo id="bg_E_S.2" depart="129.80" departLane="749662140#0_0" departPos="5.10" departSpeed="0.00" departDelay="0.00" arrival="161.00" arrivalLane="757092064#1_0" arrivalPos="81.46" arrivalSpeed="19.21" duration="31.20" routeLength="177.43" waitingTime="3.80" waitingCount="1" stopTime="0.00" timeLoss="21.28" rerouteNo="0" devices="tripinfo_bg_E_S.2" vType="car_commuter" speedFactor="1.13" vaporized=""/>
    <tripinfo id="bg_E_W.3" depart="109.50" departLane="749662140#0_0" departPos="5.10" departSpeed="0.00" departDelay="0.00" arrival="161.10" arrivalLane="978400303#0_1" arrivalPos="149.14" arrivalSpeed="19.98" duration="51.60" routeLength="297.03" waitingTime="21.00" waitingCount="1" stopTime="0.00" timeLoss="36.67" rerouteNo="0" devices="tripinfo_bg_E_W.3" vType="car_commuter" speedFactor="0.96" vaporized=""/>
    <tripinfo id="bg_E_W.6" depart="132.50" departLane="749662140#0_0" departPos="5.10" departSpeed="0.00" departDelay="1.40" arrival="161.20" arrivalLane="978400303#0_2" arrivalPos="149.14" arrivalSpeed="19.90" duration="28.70" routeLength="297.03" waitingTime="0.00" waitingCount="0" stopTime="0.00" timeLoss="13.76" rerouteNo="0" devices="tripinfo_bg_E_W.6" vType="car_commuter" speedFactor="1.00" vaporized=""/>
    <tripinfo id="bg_E_W.7" depart="138.20" departLane="749662140#0_0" departPos="5.10" departSpeed="0.00" departDelay="0.00" arrival="162.40" arrivalLane="978400303#0_1" arrivalPos="149.14" arrivalSpeed="19.94" duration="24.20" routeLength="297.03" waitingTime="0.00" waitingCount="0" stopTime="0.00" timeLoss="9.26" rerouteNo="0" devices="tripinfo_bg_E_W.7" vType="car_commuter" speedFactor="1.12" vaporized=""/>
    <tripinfo id="bg_E_W.4" depart="112.90" departLane="749662140#0_0" departPos="5.10" departSpeed="0.00" departDelay="0.00" arrival="163.00" arrivalLane="978400303#0_0" arrivalPos="149.14" arrivalSpeed="19.97" duration="50.10" routeLength="297.03" waitingTime="18.60" waitingCount="1" stopTime="0.00" timeLoss="35.16" rerouteNo="0" devices="tripinfo_bg_E_W.4" vType="car_commuter" speedFactor="0.96" vaporized=""/>
    <tripinfo id="bg_E_W.8" depart="143.90" departLane="749662140#0_0" departPos="5.10" departSpeed="0.00" departDelay="0.00" arrival="163.80" arrivalLane="978400303#0_1" arrivalPos="149.14" arrivalSpeed="19.95" duration="19.90" routeLength="297.03" waitingTime="0.00" waitingCount="0" stopTime="0.00" timeLoss="5.04" rerouteNo="0" devices="tripinfo_bg_E_W.8" vType="car_commuter" speedFactor="1.03" vaporized=""/>
    <tripinfo id="commuter_N_S.13" depart="70.50" departLane="754598165#2_0" departPos="5.10" departSpeed="0.00" departDelay="0.00" arrival="167.40" arrivalLane="757092064#1_0" arrivalPos="81.46" arrivalSpeed="19.94" duration="96.90" routeLength="213.54" waitingTime="66.60" waitingCount="2" stopTime="0.00" timeLoss="86.16" rerouteNo="0" devices="tripinfo_commuter_N_S.13" vType="car_commuter" speedFactor="1.04" vaporized=""/>
    <tripinfo id="commuter_N_S.15" depart="78.40" departLane="754598165#2_0" departPos="5.10" departSpeed="0.00" departDelay="0.00" arrival="168.50" arrivalLane="757092064#1_1" arrivalPos="81.46" arrivalSpeed="19.88" duration="90.10" routeLength="213.54" waitingTime="57.00" waitingCount="2" stopTime="0.00" timeLoss="79.43" rerouteNo="0" devices="tripinfo_commuter_N_S.15" vType="car_commuter" speedFactor="0.92" vaporized=""/>
    <tripinfo id="commuter_N_W.2" depart="83.90" departLane="754598165#2_0" departPos="5.10" departSpeed="0.00" departDelay="0.00" arrival="171.10" arrivalLane="978400303#0_3" arrivalPos="149.14" arrivalSpeed="19.98" duration="87.20" routeLength="273.05" waitingTime="53.90" waitingCount="2" stopTime="0.00" timeLoss="71.59" rerouteNo="0" devices="tripinfo_commuter_N_W.2" vType="car_commuter" speedFactor="0.91" vaporized=""/>
    <tripinfo id="commuter_N_W.3" depart="88.80" departLane="754598165#2_0" departPos="5.10" departSpeed="0.00" departDelay="0.00" arrival="172.60" arrivalLane="978400303#0_3" arrivalPos="149.14" arrivalSpeed="19.95" duration="83.80" routeLength="273.05" waitingTime="47.60" waitingCount="2" stopTime="0.00" timeLoss="68.24" rerouteNo="0" devices="tripinfo_commuter_N_W.3" vType="car_commuter" speedFactor="0.93" vaporized=""/>
    <tripinfo id="commuter_N_E.4" depart="57.00" departLane="754598165#2_0" departPos="5.10" departSpeed="0.00" departDelay="0.00" arrival="173.30" arrivalLane="563175146#1_0" arrivalPos="228.90" arrivalSpeed="19.97" duration="116.30" routeLength="331.30" waitingTime="80.70" waitingCount="2" stopTime="0.00" timeLoss="99.11" rerouteNo="0" devices="tripinfo_commuter_N_E.4" vType="car_commuter" speedFactor="1.11" vaporized=""/>
    <tripinfo id="commuter_N_E.5" depart="90.40" departLane="754598165#2_0" departPos="5.10" departSpeed="0.00" departDelay="0.00" arrival="174.60" arrivalLane="563175146#1_0" arrivalPos="228.90" arrivalSpeed="19.89" duration="84.20" routeLength="331.30" waitingTime="46.30" waitingCount="2" stopTime="0.00" timeLoss="67.01" rerouteNo="0" devices="tripinfo_commuter_N_E.5" vType="car_commuter" speedFactor="1.10" vaporized=""/>
    <tripinfo id="commuter_N_S.17" depart="137.90" departLane="754598165#2_0" departPos="5.10" departSpeed="0.00" departDelay="39.10" arrival="186.40" arrivalLane="757092064#1_2" arrivalPos="81.46" arrivalSpeed="19.95" duration="48.50" routeLength="213.54" waitingTime="19.30" waitingCount="2" stopTime="0.00" timeLoss="37.79" rerouteNo="0" devices="tripinfo_commuter_N_S.17" vType="car_commuter" speedFactor="0.92" vaporized=""/>
    <tripinfo id="commuter_N_S.16" depart="134.40" departLane="754598165#2_0" departPos="5.10" departSpeed="0.00" departDelay="42.40" arrival="186.60" arrivalLane="757092064#1_1" arrivalPos="81.46" arrivalSpeed="19.88" duration="52.20" routeLength="213.54" waitingTime="22.60" waitingCount="2" stopTime="0.00" timeLoss="41.44" rerouteNo="0" devices="tripinfo_commuter_N_S.16" vType="car_commuter" speedFactor="1.03" vaporized=""/>
    <tripinfo id="commuter_N_S.19" depart="145.90" departLane="754598165#2_0" departPos="5.10" departSpeed="0.00" departDelay="38.20" arrival="187.70" arrivalLane="757092064#1_2" arrivalPos="81.46" arrivalSpeed="19.97" duration="41.80" routeLength="213.54" waitingTime="10.60" waitingCount="1" stopTime="0.00" timeLoss="31.07" rerouteNo="0" devices="tripinfo_commuter_N_S.19" vType="car_commuter" speedFactor="0.96" vaporized=""/>
    <tripinfo id="commuter_N_S.18" depart="140.60" departLane="754598165#2_0" departPos="5.10" departSpeed="0.00" departDelay="38.20" arrival="187.80" arrivalLane="757092064#1_1" arrivalPos="81.46" arrivalSpeed="19.88" duration="47.20" routeLength="213.54" waitingTime="15.30" waitingCount="2" stopTime="0.00" timeLoss="36.45" rerouteNo="0" devices="tripinfo_commuter_N_S.18" vType="car_commuter" speedFactor="1.08" vaporized=""/>
    <tripinfo id="commuter_N_S.20" depart="148.60" departLane="754598165#2_0" departPos="5.10" departSpeed="0.00" departDelay="38.30" arrival="188.80" arrivalLane="757092064#1_0" arrivalPos="81.46" arrivalSpeed="19.88" duration="40.20" routeLength="213.54" waitingTime="9.00" waitingCount="1" stopTime="0.00" timeLoss="29.48" rerouteNo="0" devices="tripinfo_commuter_N_S.20" vType="car_commuter" speedFactor="1.08" vaporized=""/>
    <tripinfo id="commuter_N_S.21" depart="151.30" departLane="754598165#2_0" departPos="5.10" departSpeed="0.00" departDelay="38.30" arrival="189.00" arrivalLane="757092064#1_1" arrivalPos="81.46" arrivalSpeed="19.99" duration="37.70" routeLength="213.54" waitingTime="9.00" waitingCount="1" stopTime="0.00" timeLoss="26.96" rerouteNo="0" devices="tripinfo_commuter_N_S.21" vType="car_commuter" speedFactor="0.89" vaporized=""/>
    <tripinfo id="commuter_N_S.23" depart="161.40" departLane="754598165#2_0" departPos="5.10" departSpeed="0.00" departDelay="36.40" arrival="190.20" arrivalLane="757092064#1_1" arrivalPos="81.46" arrivalSpeed="19.89" duration="28.80" routeLength="213.54" waitingTime="2.60" waitingCount="1" stopTime="0.00" timeLoss="18.08" rerouteNo="0" devices="tripinfo_commuter_N_S.23" vType="car_commuter" speedFactor="0.92" vaporized=""/>
    <tripinfo id="commuter_N_S.22" depart="153.50" departLane="754598165#2_0" departPos="5.10" departSpeed="0.00" departDelay="37.80" arrival="190.30" arrivalLane="757092064#1_0" arrivalPos="81.46" arrivalSpeed="19.93" duration="36.80" routeLength="213.54" waitingTime="7.50" waitingCount="1" stopTime="0.00" timeLoss="26.04" rerouteNo="0" devices="tripinfo_commuter_N_S.22" vType="car_commuter" speedFactor="1.05" vaporized=""/>
    <tripinfo id="commuter_N_S.25" depart="164.50" departLane="754598165#2_0" departPos="5.10" departSpeed="0.00" departDelay="35.60" arrival="191.00" arrivalLane="757092064#1_2" arrivalPos="81.46" arrivalSpeed="19.88" duration="26.50" routeLength="213.54" waitingTime="0.60" waitingCount="1" stopTime="0.00" timeLoss="15.83" rerouteNo="0" devices="tripinfo_commuter_N_S.25" vType="car_commuter" speedFactor="1.08" vaporized=""/>
    <tripinfo id="commuter_N_S.24" depart="161.90" departLane="754598165#2_0" departPos="5.10" departSpeed="0.00" departDelay="33.20" arrival="191.40" arrivalLane="757092064#1_1" arrivalPos="81.46" arrivalSpeed="19.92" duration="29.50" routeLength="213.54" waitingTime="0.00" waitingCount="0" stopTime="0.00" timeLoss="18.81" rerouteNo="0" devices="tripinfo_commuter_N_S.24" vType="car_commuter" speedFactor="1.06" vaporized=""/>
    <tripinfo id="commuter_N_S.29" depart="172.80" departLane="754598165#2_0" departPos="5.10" departSpeed="0.00" departDelay="15.50" arrival="192.30" arrivalLane="757092064#1_2" arrivalPos="81.46" arrivalSpeed="19.91" duration="19.50" routeLength="213.54" waitingTime="0.00" waitingCount="0" stopTime="0.00" timeLoss="8.78" rerouteNo="0" devices="tripinfo_commuter_N_S.29" vType="car_commuter" speedFactor="0.81" vaporized=""/>
    <tripinfo id="commuter_N_E.6" depart="135.30" departLane="754598165#2_0" departPos="5.10" departSpeed="0.00" departDelay="40.70" arrival="192.40" arrivalLane="563175146#1_0" arrivalPos="228.90" arrivalSpeed="19.97" duration="57.10" routeLength="331.30" waitingTime="21.50" waitingCount="2" stopTime="0.00" timeLoss="39.22" rerouteNo="0" devices="tripinfo_commuter_N_E.6" vType="car_commuter" speedFactor="0.87" vaporized=""/>
    <tripinfo id="commuter_N_W.4" depart="148.50" departLane="754598165#2_0" departPos="5.10" departSpeed="0.00" departDelay="39.50" arrival="192.40" arrivalLane="978400303#0_3" arrivalPos="149.14" arrivalSpeed="19.91" duration="43.90" routeLength="273.05" waitingTime="8.90" waitingCount="1" stopTime="0.00" timeLoss="28.75" rerouteNo="0" devices="tripinfo_commuter_N_W.4" vType="car_commuter" speedFactor="1.02" vaporized=""/>
    <tripinfo id="commuter_N_S.27" depart="168.70" departLane="754598165#2_0" departPos="5.10" departSpeed="0.00" departDelay="29.20" arrival="192.70" arrivalLane="757092064#1_1" arrivalPos="81.46" arrivalSpeed="19.98" duration="24.00" routeLength="213.54" waitingTime="0.00" waitingCount="0" stopTime="0.00" timeLoss="13.24" rerouteNo="0" devices="tripinfo_commuter_N_S.27" vType="car_commuter" speedFactor="1.16" vaporized=""/>
    <tripinfo id="commuter_N_S.31" depart="175.90" departLane="754598165#2_0" departPos="5.10" departSpeed="0.00" departDelay="16.60" arrival="193.50" arrivalLane="757092064#1_2" arrivalPos="81.46" arrivalSpeed="19.99" duration="17.60" routeLength="213.54" waitingTime="0.00" waitingCount="0" stopTime="0.00" timeLoss="6.92" rerouteNo="0" devices="tripinfo_commuter_N_S.31" vType="car_commuter" speedFactor="1.10" vaporized=""/>
    <tripinfo id="commuter_N_E.7" depart="143.20" departLane="754598165#2_0" departPos="5.10" departSpeed="0.00" departDelay="36.50" arrival="193.80" arrivalLane="563175146#1_0" arrivalPos="228.90" arrivalSpeed="19.90" duration="50.60" routeLength="331.30" waitingTime="12.50" waitingCount="2" stopTime="0.00" timeLoss="32.98" rerouteNo="0" devices="tripinfo_commuter_N_E.7" vType="car_commuter" speedFactor="0.97" vaporized=""/>
    <tripinfo id="commuter_N_S.28" depart="170.10" departLane="754598165#2_0" departPos="5.10" departSpeed="0.00" departDelay="20.70" arrival="193.90" arrivalLane="757092064#1_1" arrivalPos="81.46" arrivalSpeed="19.88" duration="23.80" routeLength="213.54" waitingTime="0.00" waitingCount="0" stopTime="0.00" timeLoss="13.07" rerouteNo="0" devices="tripinfo_commuter_N_S.28" vType="car_commuter" speedFactor="1.16" vaporized=""/>
    <tripinfo id="commuter_N_W.5" depart="156.10" departLane="754598165#2_0" departPos="5.10" departSpeed="0.00" departDelay="39.70" arrival="194.00" arrivalLane="978400303#0_3" arrivalPos="149.14" arrivalSpeed="19.88" duration="37.90" routeLength="273.05" waitingTime="7.00" waitingCount="1" stopTime="0.00" timeLoss="22.59" rerouteNo="0" devices="tripinfo_commuter_N_W.5" vType="car_commuter" speedFactor="0.96" vaporized=""/>
    <tripinfo id="commuter_N_E.8" depart="156.20" departLane="754598165#2_0" departPos="5.10" departSpeed="0.00" departDelay="38.80" arrival="197.70" arrivalLane="563175146#1_0" arrivalPos="228.90" arrivalSpeed="19.99" duration="41.50" routeLength="331.30" waitingTime="6.40" waitingCount="1" stopTime="0.00" timeLoss="23.79" rerouteNo="0" devices="tripinfo_commuter_N_E.8" vType="car_commuter" speedFactor="0.90" vaporized=""/>
    <tripinfo id="commuter_N_E.9" depart="158.80" departLane="754598165#2_0" departPos="5.10" departSpeed="0.00" departDelay="35.60" arrival="199.10" arrivalLane="563175146#1_0" arrivalPos="228.90" arrivalSpeed="19.93" duration="40.30" routeLength="331.30" waitingTime="5.30" waitingCount="1" stopTime="0.00" timeLoss="22.90" rerouteNo="0" devices="tripinfo_commuter_N_E.9" vType="car_commuter" speedFactor="1.03" vaporized=""/>
    <tripinfo id="bg_E_S.3" depart="135.10" departLane="749662140#0_0" departPos="5.10" departSpeed="0.00" departDelay="3.10" arrival="200.00" arrivalLane="757092064#1_0" arrivalPos="81.46" arrivalSpeed="19.03" duration="64.90" routeLength="177.43" waitingTime="34.30" waitingCount="1" stopTime="0.00" timeLoss="54.82" rerouteNo="0" devices="tripinfo_bg_E_S.3" vType="car_commuter" speedFactor="1.00" vaporized=""/>
    <tripinfo id="bg_E_S.4" depart="157.30" departLane="749662140#0_0" departPos="5.10" departSpeed="0.00" departDelay="0.00" arrival="203.80" arrivalLane="757092064#1_0" arrivalPos="81.46" arrivalSpeed="18.33" duration="46.50" routeLength="177.43" waitingTime="20.10" waitingCount="1" stopTime="0.00" timeLoss="36.39" rerouteNo="0" devices="tripinfo_bg_E_S.4" vType="car_commuter" speedFactor="0.99" vaporized=""/>
    <tripinfo id="bg_E_W.9" depart="147.00" departLane="749662140#0_0" departPos="5.10" departSpeed="0.00" departDelay="0.00" arrival="205.70" arrivalLane="978400303#0_1" arrivalPos="149.14" arrivalSpeed="19.95" duration="58.70" routeLength="297.03" waitingTime="32.30" waitingCount="1" stopTime="0.00" timeLoss="43.84" rerouteNo="0" devices="tripinfo_bg_E_W.9" vType="car_commuter" speedFactor="1.05" vaporized=""/>
    <tripinfo id="bg_E_W.11" depart="153.30" departLane="749662140#0_0" departPos="5.10" departSpeed="0.00" departDelay="1.70" arrival="205.80" arrivalLane="978400303#0_2" arrivalPos="149.14" arrivalSpeed="19.99" duration="52.50" routeLength="297.03" waitingTime="25.80" waitingCount="1" stopTime="0.00" timeLoss="37.57" rerouteNo="0" devices="tripinfo_bg_E_W.11" vType="car_commuter" speedFactor="0.89" vaporized=""/>
    <tripinfo id="bg_E_W.13" depart="185.20" departLane="749662140#0_0" departPos="5.10" departSpeed="0.00" departDelay="0.00" arrival="205.80" arrivalLane="978400303#0_3" arrivalPos="149.14" arrivalSpeed="19.92" duration="20.60" routeLength="297.03" waitingTime="0.00" waitingCount="0" stopTime="0.00" timeLoss="5.72" rerouteNo="0" devices="tripinfo_bg_E_W.13" vType="car_commuter" speedFactor="0.95" vaporized=""/>
    <tripinfo id="bg_E_S.5" depart="171.10" departLane="749662140#0_0" departPos="5.10" departSpeed="0.00" departDelay="0.00" arrival="206.50" arrivalLane="757092064#1_0" arrivalPos="81.46" arrivalSpeed="18.64" duration="35.40" routeLength="177.43" waitingTime="7.20" waitingCount="1" stopTime="0.00" timeLoss="24.93" rerouteNo="0" devices="tripinfo_bg_E_S.5" vType="car_commuter" speedFactor="0.83" vaporized=""/>
    <tripinfo id="bg_E_W.10" depart="150.60" departLane="749662140#0_0" departPos="5.10" departSpeed="0.00" departDelay="0.00" arrival="207.10" arrivalLane="978400303#0_0" arrivalPos="149.14" arrivalSpeed="19.95" duration="56.50" routeLength="297.03" waitingTime="25.80" waitingCount="1" stopTime="0.00" timeLoss="41.63" rerouteNo="0" devices="tripinfo_bg_E_W.10" vType="car_commuter" speedFactor="1.09" vaporized=""/>
    <tripinfo id="bg_E_W.12" depart="160.00" departLane="749662140#0_0" departPos="5.10" departSpeed="0.00" departDelay="1.00" arrival="207.10" arrivalLane="978400303#0_1" arrivalPos="149.14" arrivalSpeed="19.98" duration="47.10" routeLength="297.03" waitingTime="16.50" waitingCount="1" stopTime="0.00" timeLoss="32.19" rerouteNo="0" devices="tripinfo_bg_E_W.12" vType="car_commuter" speedFactor="0.87" vaporized=""/>