<?xml version="1.0" encoding="UTF-8"?>

<!-- generated on 2025-06-03 02:19:51 by Eclipse SUMO sumo Version 1.22.0
<sumoConfiguration xmlns:xsi="http://www.w3.org/2001/XMLSchema-instance" xsi:noNamespaceSchemaLocation="http://sumo.dlr.de/xsd/sumoConfiguration.xsd">

    <input>
        <net-file value="osm.net.xml"/>
        <route-files value="route.rou.xml"/>
        <additional-files value="osm.poly.xml.gz"/>
    </input>

    <output>
        <summary-output value="summary_eval_final_ep4.xml"/>
        <tripinfo-output value="tripinfo_eval_final_ep4.xml"/>
    </output>

    <time>
        <begin value="0"/>
        <end value="3600"/>
    </time>

    <processing>
        <time-to-teleport value="-1"/>
        <waiting-time-memory value="1000"/>
    </processing>

    <report>
        <verbose value="true"/>
        <duration-log.statistics value="true"/>
        <no-step-log value="true"/>
    </report>

    <traci_server>
        <remote-port value="52030"/>
    </traci_server>

    <random_number>
        <seed value="10358"/>
    </random_number>

</sumoConfiguration>
-->

<tripinfos xmlns:xsi="http://www.w3.org/2001/XMLSchema-instance" xsi:noNamespaceSchemaLocation="http://sumo.dlr.de/xsd/tripinfo_file.xsd">
    <tripinfo id="commuter_N_S.1" depart="4.00" departLane="754598165#2_0" departPos="5.10" departSpeed="0.00" departDelay="2.00" arrival="37.00" arrivalLane="757092064#1_1" arrivalPos="81.46" arrivalSpeed="19.06" duration="33.00" routeLength="213.54" waitingTime="9.00" waitingCount="1" stopTime="0.00" timeLoss="22.12" rerouteNo="0" devices="tripinfo_commuter_N_S.1" vType="car_commuter" speedFactor="1.07" vaporized=""/>
    <tripinfo id="commuter_N_S.0" depart="1.00" departLane="754598165#2_0" departPos="5.10" departSpeed="0.00" departDelay="0.00" arrival="38.00" arrivalLane="757092064#1_0" arrivalPos="81.46" arrivalSpeed="18.98" duration="37.00" routeLength="213.54" waitingTime="13.00" waitingCount="1" stopTime="0.00" timeLoss="25.49" rerouteNo="0" devices="tripinfo_commuter_N_S.0" vType="car_commuter" speedFactor="1.09" vaporized=""/>
    <tripinfo id="commuter_N_S.3" depart="11.00" departLane="754598165#2_0" departPos="5.10" departSpeed="0.00" departDelay="4.00" arrival="39.00" arrivalLane="757092064#1_1" arrivalPos="81.46" arrivalSpeed="18.81" duration="28.00" routeLength="213.54" waitingTime="4.00" waitingCount="1" stopTime="0.00" timeLoss="16.83" rerouteNo="0" devices="tripinfo_commuter_N_S.3" vType="car_commuter" speedFactor="1.00" vaporized=""/>
    <tripinfo id="commuter_N_S.4" depart="14.00" departLane="754598165#2_0" departPos="5.10" departSpeed="0.00" departDelay="6.00" arrival="39.00" arrivalLane="757092064#1_2" arrivalPos="81.46" arrivalSpeed="19.98" duration="25.00" routeLength="213.54" waitingTime="0.00" waitingCount="0" stopTime="0.00" timeLoss="14.22" rerouteNo="0" devices="tripinfo_commuter_N_S.4" vType="car_commuter" speedFactor="0.89" vaporized=""/>
    <tripinfo id="commuter_N_S.2" depart="8.00" departLane="754598165#2_0" departPos="5.10" departSpeed="0.00" departDelay="2.00" arrival="40.00" arrivalLane="757092064#1_0" arrivalPos="81.46" arrivalSpeed="19.32" duration="32.00" routeLength="213.54" waitingTime="7.00" waitingCount="1" stopTime="0.00" timeLoss="20.66" rerouteNo="0" devices="tripinfo_commuter_N_S.2" vType="car_commuter" speedFactor="1.25" vaporized=""/>
    <tripinfo id="commuter_N_S.6" depart="22.00" departLane="754598165#2_0" departPos="5.10" departSpeed="0.00" departDelay="12.00" arrival="40.00" arrivalLane="757092064#1_1" arrivalPos="81.46" arrivalSpeed="19.02" duration="18.00" routeLength="213.54" waitingTime="0.00" waitingCount="0" stopTime="0.00" timeLoss="7.32" rerouteNo="0" devices="tripinfo_commuter_N_S.6" vType="car_commuter" speedFactor="0.93" vaporized=""/>
    <tripinfo id="commuter_N_W.0" depart="7.00" departLane="754598165#2_0" departPos="5.10" departSpeed="0.00" departDelay="2.00" arrival="41.00" arrivalLane="978400303#0_3" arrivalPos="149.14" arrivalSpeed="18.79" duration="34.00" routeLength="273.05" waitingTime="7.00" waitingCount="1" stopTime="0.00" timeLoss="18.66" rerouteNo="0" devices="tripinfo_commuter_N_W.0" vType="car_commuter" speedFactor="0.98" vaporized=""/>
    <tripinfo id="commuter_N_S.5" depart="18.00" departLane="754598165#2_0" departPos="5.10" departSpeed="0.00" departDelay="9.00" arrival="87.00" arrivalLane="757092064#1_0" arrivalPos="81.46" arrivalSpeed="18.72" duration="69.00" routeLength="213.54" waitingTime="41.00" waitingCount="1" stopTime="0.00" timeLoss="58.27" rerouteNo="0" devices="tripinfo_commuter_N_S.5" vType="car_commuter" speedFactor="0.99" vaporized=""/>
    <tripinfo id="commuter_N_S.7" depart="29.00" departLane="754598165#2_0" departPos="5.10" departSpeed="0.00" departDelay="13.00" arrival="88.00" arrivalLane="757092064#1_0" arrivalPos="81.46" arrivalSpeed="19.22" duration="59.00" routeLength="213.54" waitingTime="35.00" waitingCount="1" stopTime="0.00" timeLoss="47.95" rerouteNo="0" devices="tripinfo_commuter_N_S.7" vType="car_commuter" speedFactor="1.09" vaporized=""/>
    <tripinfo id="commuter_N_S.8" depart="33.00" departLane="754598165#2_0" departPos="5.10" departSpeed="0.00" departDelay="13.00" arrival="90.00" arrivalLane="757092064#1_1" arrivalPos="81.46" arrivalSpeed="19.53" duration="57.00" routeLength="213.54" waitingTime="32.00" waitingCount="1" stopTime="0.00" timeLoss="45.63" rerouteNo="0" devices="tripinfo_commuter_N_S.8" vType="car_commuter" speedFactor="0.99" vaporized=""/>
    <tripinfo id="commuter_N_W.1" depart="21.00" departLane="754598165#2_0" departPos="5.10" departSpeed="0.00" departDelay="12.00" arrival="91.00" arrivalLane="978400303#0_3" arrivalPos="149.14" arrivalSpeed="18.79" duration="70.00" routeLength="273.05" waitingTime="44.00" waitingCount="1" stopTime="0.00" timeLoss="54.77" rerouteNo="0" devices="tripinfo_commuter_N_W.1" vType="car_commuter" speedFactor="1.04" vaporized=""/>
    <tripinfo id="commuter_N_S.9" depart="36.00" departLane="754598165#2_0" departPos="5.10" departSpeed="0.00" departDelay="15.00" arrival="91.00" arrivalLane="757092064#1_1" arrivalPos="81.46" arrivalSpeed="19.88" duration="55.00" routeLength="213.54" waitingTime="32.00" waitingCount="1" stopTime="0.00" timeLoss="44.20" rerouteNo="0" devices="tripinfo_commuter_N_S.9" vType="car_commuter" speedFactor="0.92" vaporized=""/>
    <tripinfo id="commuter_N_S.10" depart="39.00" departLane="754598165#2_0" departPos="5.10" departSpeed="0.00" departDelay="17.00" arrival="91.00" arrivalLane="757092064#1_0" arrivalPos="81.46" arrivalSpeed="18.89" duration="52.00" routeLength="213.54" waitingTime="29.00" waitingCount="1" stopTime="0.00" timeLoss="40.48" rerouteNo="0" devices="tripinfo_commuter_N_S.10" vType="car_commuter" speedFactor="0.96" vaporized=""/>
    <tripinfo id="commuter_N_S.11" depart="43.00" departLane="754598165#2_0" departPos="5.10" departSpeed="0.00" departDelay="10.00" arrival="92.00" arrivalLane="757092064#1_0" arrivalPos="81.46" arrivalSpeed="19.66" duration="49.00" routeLength="213.54" waitingTime="25.00" waitingCount="1" stopTime="0.00" timeLoss="38.22" rerouteNo="0" devices="tripinfo_commuter_N_S.11" vType="car_commuter" speedFactor="1.14" vaporized=""/>
    <tripinfo id="commuter_N_W.2" depart="25.00" departLane="754598165#2_0" departPos="5.10" departSpeed="0.00" departDelay="14.00" arrival="93.00" arrivalLane="978400303#0_3" arrivalPos="149.14" arrivalSpeed="19.68" duration="68.00" routeLength="273.05" waitingTime="41.00" waitingCount="1" stopTime="0.00" timeLoss="52.55" rerouteNo="0" devices="tripinfo_commuter_N_W.2" vType="car_commuter" speedFactor="1.02" vaporized=""/>
    <tripinfo id="commuter_N_E.0" depart="26.00" departLane="754598165#2_0" departPos="5.10" departSpeed="0.00" departDelay="11.00" arrival="95.00" arrivalLane="563175146#1_0" arrivalPos="228.90" arrivalSpeed="19.92" duration="69.00" routeLength="331.30" waitingTime="41.00" waitingCount="1" stopTime="0.00" timeLoss="51.28" rerouteNo="0" devices="tripinfo_commuter_N_E.0" vType="car_commuter" speedFactor="1.06" vaporized=""/>
    <tripinfo id="commuter_N_W.3" depart="32.00" departLane="754598165#2_0" departPos="5.10" departSpeed="0.00" departDelay="14.00" arrival="96.00" arrivalLane="978400303#0_3" arrivalPos="149.14" arrivalSpeed="19.68" duration="64.00" routeLength="273.05" waitingTime="37.00" waitingCount="1" stopTime="0.00" timeLoss="47.84" rerouteNo="0" devices="tripinfo_commuter_N_W.3" vType="car_commuter" speedFactor="0.95" vaporized=""/>
    <tripinfo id="commuter_N_W.4" depart="42.00" departLane="754598165#2_0" departPos="5.10" departSpeed="0.00" departDelay="13.00" arrival="97.00" arrivalLane="978400303#0_3" arrivalPos="149.14" arrivalSpeed="19.72" duration="55.00" routeLength="273.05" waitingTime="28.00" waitingCount="1" stopTime="0.00" timeLoss="39.96" rerouteNo="0" devices="tripinfo_commuter_N_W.4" vType="car_commuter" speedFactor="1.05" vaporized=""/>
    <tripinfo id="commuter_N_E.1" depart="47.00" departLane="754598165#2_0" departPos="5.10" departSpeed="0.00" departDelay="10.00" arrival="101.00" arrivalLane="563175146#1_0" arrivalPos="228.90" arrivalSpeed="19.54" duration="54.00" routeLength="331.30" waitingTime="24.00" waitingCount="1" stopTime="0.00" timeLoss="35.64" rerouteNo="0" devices="tripinfo_commuter_N_E.1" vType="car_commuter" speedFactor="0.91" vaporized=""/>
    <tripinfo id="bg_E_S.0" depart="33.00" departLane="749662140#0_0" departPos="5.10" departSpeed="0.00" departDelay="0.00" arrival="103.00" arrivalLane="757092064#1_0" arrivalPos="81.46" arrivalSpeed="19.04" duration="70.00" routeLength="177.43" waitingTime="49.00" waitingCount="1" stopTime="0.00" timeLoss="59.48" rerouteNo="0" devices="tripinfo_bg_E_S.0" vType="car_commuter" speedFactor="0.97" vaporized=""/>
    <tripinfo id="bg_E_N.0" depart="16.00" departLane="749662140#0_0" departPos="5.10" departSpeed="0.00" departDelay="0.00" arrival="104.00" arrivalLane="749988360#0_2" arrivalPos="93.21" arrivalSpeed="19.94" duration="88.00" routeLength="241.59" waitingTime="66.00" waitingCount="1" stopTime="0.00" timeLoss="74.01" rerouteNo="0" devices="tripinfo_bg_E_N.0" vType="car_commuter" speedFactor="0.94" vaporized=""/>
    <tripinfo id="bg_E_N.1" depart="28.00" departLane="749662140#0_0" departPos="5.10" departSpeed="0.00" departDelay="0.00" arrival="106.00" arrivalLane="749988360#0_2" arrivalPos="93.21" arrivalSpeed="19.50" duration="78.00" routeLength="241.59" waitingTime="54.00" waitingCount="1" stopTime="0.00" timeLoss="64.79" rerouteNo="0" devices="tripinfo_bg_E_N.1" vType="car_commuter" speedFactor="0.85" vaporized=""/>
    <tripinfo id="bg_E_W.0" depart="22.00" departLane="749662140#0_0" departPos="5.10" departSpeed="0.00" departDelay="0.00" arrival="107.00" arrivalLane="978400303#0_0" arrivalPos="149.14" arrivalSpeed="19.98" duration="85.00" routeLength="297.03" waitingTime="58.00" waitingCount="1" stopTime="0.00" timeLoss="69.36" rerouteNo="0" devices="tripinfo_bg_E_W.0" vType="car_commuter" speedFactor="0.88" vaporized=""/>
    <tripinfo id="bg_E_W.1" depart="62.00" departLane="749662140#0_0" departPos="5.10" departSpeed="0.00" departDelay="0.00" arrival="107.00" arrivalLane="978400303#0_1" arrivalPos="149.14" arrivalSpeed="19.84" duration="45.00" routeLength="297.03" waitingTime="18.00" waitingCount="1" stopTime="0.00" timeLoss="29.63" rerouteNo="0" devices="tripinfo_bg_E_W.1" vType="car_commuter" speedFactor="0.99" vaporized=""/>
    <tripinfo id="bg_E_W.2" depart="85.00" departLane="749662140#0_0" departPos="5.10" departSpeed="0.00" departDelay="0.00" arrival="107.00" arrivalLane="978400303#0_2" arrivalPos="149.14" arrivalSpeed="19.52" duration="22.00" routeLength="297.03" waitingTime="0.00" waitingCount="0" stopTime="0.00" timeLoss="6.85" rerouteNo="0" devices="tripinfo_bg_E_W.2" vType="car_commuter" speedFactor="1.02" vaporized=""/>
    <tripinfo id="commuter_N_S.12" depart="86.00" departLane="754598165#2_0" departPos="5.10" departSpeed="0.00" departDelay="25.00" arrival="114.00" arrivalLane="757092064#1_1" arrivalPos="81.46" arrivalSpeed="19.78" duration="28.00" routeLength="213.54" waitingTime="4.00" waitingCount="1" stopTime="0.00" timeLoss="16.61" rerouteNo="0" devices="tripinfo_commuter_N_S.12" vType="car_commuter" speedFactor="0.91" vaporized=""/>
    <tripinfo id="commuter_N_S.13" depart="89.00" departLane="754598165#2_0" departPos="5.10" departSpeed="0.00" departDelay="24.00" arrival="115.00" arrivalLane="757092064#1_1" arrivalPos="81.46" arrivalSpeed="18.73" duration="26.00" routeLength="213.54" waitingTime="1.00" waitingCount="1" stopTime="0.00" timeLoss="15.29" rerouteNo="0" devices="tripinfo_commuter_N_S.13" vType="car_commuter" speedFactor="1.02" vaporized=""/>
    <tripinfo id="commuter_N_W.5" depart="46.00" departLane="754598165#2_0" departPos="5.10" departSpeed="0.00" departDelay="10.00" arrival="117.00" arrivalLane="978400303#0_3" arrivalPos="149.14" arrivalSpeed="19.48" duration="71.00" routeLength="273.05" waitingTime="38.00" waitingCount="2" stopTime="0.00" timeLoss="55.75" rerouteNo="0" devices="tripinfo_commuter_N_W.5" vType="car_commuter" speedFactor="1.06" vaporized=""/>
    <tripinfo id="commuter_N_E.2" depart="50.00" departLane="754598165#2_0" departPos="5.10" departSpeed="0.00" departDelay="8.00" arrival="119.00" arrivalLane="563175146#1_0" arrivalPos="228.90" arrivalSpeed="19.47" duration="69.00" routeLength="331.30" waitingTime="33.00" waitingCount="2" stopTime="0.00" timeLoss="51.63" rerouteNo="0" devices="tripinfo_commuter_N_E.2" vType="car_commuter" speedFactor="1.09" vaporized=""/>
    <tripinfo id="commuter_N_W.6" depart="59.00" departLane="754598165#2_0" departPos="5.10" departSpeed="0.00" departDelay="10.00" arrival="119.00" arrivalLane="978400303#0_3" arrivalPos="149.14" arrivalSpeed="19.59" duration="60.00" routeLength="273.05" waitingTime="27.00" waitingCount="2" stopTime="0.00" timeLoss="44.38" rerouteNo="0" devices="tripinfo_commuter_N_W.6" vType="car_commuter" speedFactor="0.98" vaporized=""/>
    <tripinfo id="commuter_N_E.3" depart="53.00" departLane="754598165#2_0" departPos="5.10" departSpeed="0.00" departDelay="9.00" arrival="121.00" arrivalLane="563175146#1_0" arrivalPos="228.90" arrivalSpeed="19.55" duration="68.00" routeLength="331.30" waitingTime="32.00" waitingCount="2" stopTime="0.00" timeLoss="50.59" rerouteNo="0" devices="tripinfo_commuter_N_E.3" vType="car_commuter" speedFactor="1.01" vaporized=""/>
    <tripinfo id="commuter_N_E.4" depart="56.00" departLane="754598165#2_0" departPos="5.10" departSpeed="0.00" departDelay="9.00" arrival="123.00" arrivalLane="563175146#1_0" arrivalPos="228.90" arrivalSpeed="19.84" duration="67.00" routeLength="331.30" waitingTime="31.00" waitingCount="2" stopTime="0.00" timeLoss="49.35" rerouteNo="0" devices="tripinfo_commuter_N_E.4" vType="car_commuter" speedFactor="0.97" vaporized=""/>
    <tripinfo id="commuter_N_S.14" depart="92.00" departLane="754598165#2_0" departPos="5.10" departSpeed="0.00" departDelay="26.00" arrival="139.00" arrivalLane="757092064#1_0" arrivalPos="81.46" arrivalSpeed="19.38" duration="47.00" routeLength="213.54" waitingTime="19.00" waitingCount="1" stopTime="0.00" timeLoss="36.31" rerouteNo="0" devices="tripinfo_commuter_N_S.14" vType="car_commuter" speedFactor="0.95" vaporized=""/>
    <tripinfo id="commuter_N_S.15" depart="95.00" departLane="754598165#2_0" departPos="5.10" departSpeed="0.00" departDelay="27.00" arrival="141.00" arrivalLane="757092064#1_1" arrivalPos="81.46" arrivalSpeed="19.14" duration="46.00" routeLength="213.54" waitingTime="18.00" waitingCount="1" stopTime="0.00" timeLoss="35.29" rerouteNo="0" devices="tripinfo_commuter_N_S.15" vType="car_commuter" speedFactor="0.90" vaporized=""/>
    <tripinfo id="commuter_N_S.16" depart="101.00" departLane="754598165#2_0" departPos="5.10" departSpeed="0.00" departDelay="26.00" arrival="141.00" arrivalLane="757092064#1_2" arrivalPos="81.46" arrivalSpeed="19.22" duration="40.00" routeLength="213.54" waitingTime="16.00" waitingCount="1" stopTime="0.00" timeLoss="28.82" rerouteNo="0" devices="tripinfo_commuter_N_S.16" vType="car_commuter" speedFactor="0.95" vaporized=""/>
    <tripinfo id="commuter_N_W.7" depart="85.00" departLane="754598165#2_0" departPos="5.10" departSpeed="0.00" departDelay="32.00" arrival="143.00" arrivalLane="978400303#0_3" arrivalPos="149.14" arrivalSpeed="19.91" duration="58.00" routeLength="273.05" waitingTime="28.00" waitingCount="2" stopTime="0.00" timeLoss="43.01" rerouteNo="0" devices="tripinfo_commuter_N_W.7" vType="car_commuter" speedFactor="1.18" vaporized=""/>
    <tripinfo id="commuter_N_S.17" depart="104.00" departLane="754598165#2_0" departPos="5.10" departSpeed="0.00" departDelay="27.00" arrival="143.00" arrivalLane="757092064#1_1" arrivalPos="81.46" arrivalSpeed="19.83" duration="39.00" routeLength="213.54" waitingTime="16.00" waitingCount="1" stopTime="0.00" timeLoss="28.00" rerouteNo="0" devices="tripinfo_commuter_N_S.17" vType="car_commuter" speedFactor="0.92" vaporized=""/>
    <tripinfo id="commuter_N_S.18" depart="107.00" departLane="754598165#2_0" departPos="5.10" departSpeed="0.00" departDelay="20.00" arrival="143.00" arrivalLane="757092064#1_0" arrivalPos="81.46" arrivalSpeed="19.39" duration="36.00" routeLength="213.54" waitingTime="12.00" waitingCount="1" stopTime="0.00" timeLoss="24.97" rerouteNo="0" devices="tripinfo_commuter_N_S.18" vType="car_commuter" speedFactor="0.95" vaporized=""/>
    <tripinfo id="commuter_N_S.19" depart="111.00" departLane="754598165#2_0" departPos="5.10" departSpeed="0.00" departDelay="23.00" arrival="145.00" arrivalLane="757092064#1_0" arrivalPos="81.46" arrivalSpeed="19.45" duration="34.00" routeLength="213.54" waitingTime="10.00" waitingCount="1" stopTime="0.00" timeLoss="22.58" rerouteNo="0" devices="tripinfo_commuter_N_S.19" vType="car_commuter" speedFactor="1.03" vaporized=""/>
    <tripinfo id="commuter_N_S.20" depart="117.00" departLane="754598165#2_0" departPos="5.10" departSpeed="0.00" departDelay="17.00" arrival="145.00" arrivalLane="757092064#1_2" arrivalPos="81.46" arrivalSpeed="19.71" duration="28.00" routeLength="213.54" waitingTime="4.00" waitingCount="1" stopTime="0.00" timeLoss="16.38" rerouteNo="0" devices="tripinfo_commuter_N_S.20" vType="car_commuter" speedFactor="1.01" vaporized=""/>
    <tripinfo id="commuter_N_S.21" depart="120.00" departLane="754598165#2_0" departPos="5.10" departSpeed="0.00" departDelay="19.00" arrival="145.00" arrivalLane="757092064#1_1" arrivalPos="81.46" arrivalSpeed="18.77" duration="25.00" routeLength="213.54" waitingTime="1.00" waitingCount="1" stopTime="0.00" timeLoss="13.64" rerouteNo="0" devices="tripinfo_commuter_N_S.21" vType="car_commuter" speedFactor="0.95" vaporized=""/>
    <tripinfo id="commuter_N_E.5" depart="60.00" departLane="754598165#2_0" departPos="5.10" departSpeed="0.00" departDelay="9.00" arrival="146.00" arrivalLane="563175146#1_0" arrivalPos="228.90" arrivalSpeed="19.72" duration="86.00" routeLength="331.30" waitingTime="45.00" waitingCount="3" stopTime="0.00" timeLoss="67.94" rerouteNo="0" devices="tripinfo_commuter_N_E.5" vType="car_commuter" speedFactor="1.01" vaporized=""/>
    <tripinfo id="commuter_N_W.8" depart="110.00" departLane="754598165#2_0" departPos="5.10" departSpeed="0.00" departDelay="23.00" arrival="146.00" arrivalLane="978400303#0_3" arrivalPos="149.14" arrivalSpeed="18.89" duration="36.00" routeLength="273.05" waitingTime="10.00" waitingCount="1" stopTime="0.00" timeLoss="20.92" rerouteNo="0" devices="tripinfo_commuter_N_W.8" vType="car_commuter" speedFactor="1.15" vaporized=""/>
    <tripinfo id="commuter_N_S.22" depart="126.00" departLane="754598165#2_0" departPos="5.10" departSpeed="0.00" departDelay="19.00" arrival="146.00" arrivalLane="757092064#1_2" arrivalPos="81.46" arrivalSpeed="18.78" duration="20.00" routeLength="213.54" waitingTime="0.00" waitingCount="0" stopTime="0.00" timeLoss="9.05" rerouteNo="0" devices="tripinfo_commuter_N_S.22" vType="car_commuter" speedFactor="0.88" vaporized=""/>
    <tripinfo id="commuter_N_E.6" depart="98.00" departLane="754598165#2_0" departPos="5.10" departSpeed="0.00" departDelay="25.00" arrival="148.00" arrivalLane="563175146#1_0" arrivalPos="228.90" arrivalSpeed="19.67" duration="50.00" routeLength="331.30" waitingTime="15.00" waitingCount="1" stopTime="0.00" timeLoss="32.18" rerouteNo="0" devices="tripinfo_commuter_N_E.6" vType="car_commuter" speedFactor="1.08" vaporized=""/>
    <tripinfo id="commuter_N_E.7" depart="114.00" departLane="754598165#2_0" departPos="5.10" departSpeed="0.00" departDelay="25.00" arrival="153.00" arrivalLane="563175146#1_0" arrivalPos="228.90" arrivalSpeed="18.98" duration="39.00" routeLength="331.30" waitingTime="8.00" waitingCount="1" stopTime="0.00" timeLoss="20.93" rerouteNo="0" devices="tripinfo_commuter_N_E.7" vType="car_commuter" speedFactor="1.05" vaporized=""/>
    <tripinfo id="bg_E_S.1" depart="104.00" departLane="749662140#0_0" departPos="5.10" departSpeed="0.00" departDelay="0.00" arrival="153.00" arrivalLane="757092064#1_0" arrivalPos="81.46" arrivalSpeed="19.02" duration="49.00" routeLength="177.43" waitingTime="27.00" waitingCount="1" stopTime="0.00" timeLoss="38.94" rerouteNo="0" devices="tripinfo_bg_E_S.1" vType="car_commuter" speedFactor="1.14" vaporized=""/>
    <tripinfo id="commuter_N_S.23" depart="132.00" departLane="754598165#2_0" departPos="5.10" departSpeed="0.00" departDelay="20.00" arrival="166.00" arrivalLane="757092064#1_0" arrivalPos="81.46" arrivalSpeed="20.00" duration="34.00" routeLength="213.54" waitingTime="10.00" waitingCount="1" stopTime="0.00" timeLoss="22.75" rerouteNo="0" devices="tripinfo_commuter_N_S.23" vType="car_commuter" speedFactor="0.83" vaporized=""/>
    <tripinfo id="commuter_N_S.24" depart="138.00" departLane="754598165#2_0" departPos="5.10" departSpeed="0.00" departDelay="19.00" arrival="167.00" arrivalLane="757092064#1_2" arrivalPos="81.46" arrivalSpeed="18.97" duration="29.00" routeLength="213.54" waitingTime="2.00" waitingCount="1" stopTime="0.00" timeLoss="18.25" rerouteNo="0" devices="tripinfo_commuter_N_S.24" vType="car_commuter" speedFactor="0.89" vaporized=""/>
    <tripinfo id="commuter_N_S.25" depart="141.00" departLane="754598165#2_0" departPos="5.10" departSpeed="0.00" departDelay="17.00" arrival="167.00" arrivalLane="757092064#1_1" arrivalPos="81.46" arrivalSpeed="19.82" duration="26.00" routeLength="213.54" waitingTime="4.00" waitingCount="1" stopTime="0.00" timeLoss="14.49" rerouteNo="0" devices="tripinfo_commuter_N_S.25" vType="car_commuter" speedFactor="1.09" vaporized=""/>
    <tripinfo id="commuter_N_W.9" depart="131.00" departLane="754598165#2_0" departPos="5.10" departSpeed="0.00" departDelay="21.00" arrival="169.00" arrivalLane="978400303#0_3" arrivalPos="149.14" arrivalSpeed="19.26" duration="38.00" routeLength="273.05" waitingTime="12.00" waitingCount="1" stopTime="0.00" timeLoss="22.58" rerouteNo="0" devices="tripinfo_commuter_N_W.9" vType="car_commuter" speedFactor="1.03" vaporized=""/>
    <tripinfo id="commuter_N_S.26" depart="144.00" departLane="754598165#2_0" departPos="5.10" departSpeed="0.00" departDelay="19.00" arrival="169.00" arrivalLane="757092064#1_1" arrivalPos="81.46" arrivalSpeed="19.75" duration="25.00" routeLength="213.54" waitingTime="0.00" waitingCount="0" stopTime="0.00" timeLoss="13.53" rerouteNo="0" devices="tripinfo_commuter_N_S.26" vType="car_commuter" speedFactor="1.17" vaporized=""/>
    <tripinfo id="commuter_N_E.8" depart="123.00" departLane="754598165#2_0" departPos="5.10" departSpeed="0.00" departDelay="22.00" arrival="172.00" arrivalLane="563175146#1_0" arrivalPos="228.90" arrivalSpeed="19.13" duration="49.00" routeLength="331.30" waitingTime="12.00" waitingCount="2" stopTime="0.00" timeLoss="30.59" rerouteNo="0" devices="tripinfo_commuter_N_E.8" vType="car_commuter" speedFactor="0.92" vaporized=""/>
    <tripinfo id="commuter_N_E.9" depart="128.00" departLane="754598165#2_0" departPos="5.10" departSpeed="0.00" departDelay="20.00" arrival="173.00" arrivalLane="563175146#1_0" arrivalPos="228.90" arrivalSpeed="19.72" duration="45.00" routeLength="331.30" waitingTime="11.00" waitingCount="1" stopTime="0.00" timeLoss="27.37" rerouteNo="0" devices="tripinfo_commuter_N_E.9" vType="car_commuter" speedFactor="0.94" vaporized=""/>
    <tripinfo id="commuter_N_W.10" depart="147.00" departLane="754598165#2_0" departPos="5.10" departSpeed="0.00" departDelay="21.00" arrival="173.00" arrivalLane="978400303#0_3" arrivalPos="149.14" arrivalSpeed="18.84" duration="26.00" routeLength="273.05" waitingTime="0.00" waitingCount="0" stopTime="0.00" timeLoss="10.42" rerouteNo="0" devices="tripinfo_commuter_N_W.10" vType="car_commuter" speedFactor="0.96" vaporized=""/>
    <tripinfo id="commuter_N_E.10" depart="135.00" departLane="754598165#2_0" departPos="5.10" departSpeed="0.00" departDelay="21.00" arrival="175.00" arrivalLane="563175146#1_0" arrivalPos="228.90" arrivalSpeed="19.30" duration="40.00" routeLength="331.30" waitingTime="10.00" waitingCount="1" stopTime="0.00" timeLoss="22.30" rerouteNo="0" devices="tripinfo_commuter_N_E.10" vType="car_commuter" speedFactor="1.04" vaporized=""/>
    <tripinfo id="commuter_N_S.27" depart="148.00" departLane="754598165#2_0" departPos="5.10" departSpeed="0.00" departDelay="19.00" arrival="227.00" arrivalLane="757092064#1_0" arrivalPos="81.46" arrivalSpeed="19.11" duration="79.00" routeLength="213.54" waitingTime="52.00" waitingCount="1" stopTime="0.00" timeLoss="68.10" rerouteNo="0" devices="tripinfo_commuter_N_S.27" vType="car_commuter" speedFactor="0.99" vaporized=""/>
    <tripinfo id="commuter_N_S.28" depart="151.00" departLane="754598165#2_0" departPos="5.10" departSpeed="0.00" departDelay="21.00" arrival="228.00" arrivalLane="757092064#1_1" arrivalPos="81.46" arrivalSpeed="19.14" duration="77.00" routeLength="213.54" waitingTime="51.00" waitingCount="1" stopTime="0.00" timeLoss="65.43" rerouteNo="0" devices="tripinfo_commuter_N_S.28" vType="car_commuter" speedFactor="1.13" vaporized=""/>
    <tripinfo id="commuter_N_S.29" depart="158.00" departLane="754598165#2_0" departPos="5.10" departSpeed="0.00" departDelay="18.00" arrival="229.00" arrivalLane="757092064#1_1" arrivalPos="81.46" arrivalSpeed="19.43" duration="71.00" routeLength="213.54" waitingTime="46.00" waitingCount="1" stopTime="0.00" timeLoss="60.22" rerouteNo="0" devices="tripinfo_commuter_N_S.29" vType="car_commuter" speedFactor="0.92" vaporized=""/>
    <tripinfo id="commuter_N_S.30" depart="170.00" departLane="754598165#2_0" departPos="5.10" departSpeed="0.00" departDelay="18.00" arrival="229.00" arrivalLane="757092064#1_2" arrivalPos="81.46" arrivalSpeed="19.27" duration="59.00" routeLength="213.54" waitingTime="34.00" waitingCount="1" stopTime="0.00" timeLoss="47.92" rerouteNo="0" devices="tripinfo_commuter_N_S.30" vType="car_commuter" speedFactor="1.04" vaporized=""/>
    <tripinfo id="commuter_N_S.31" depart="172.00" departLane="754598165#2_0" departPos="5.10" departSpeed="0.00" departDelay="19.00" arrival="231.00" arrivalLane="757092064#1_1" arrivalPos="81.46" arrivalSpeed="19.44" duration="59.00" routeLength="213.54" waitingTime="36.00" waitingCount="1" stopTime="0.00" timeLoss="48.22" rerouteNo="0" devices="tripinfo_commuter_N_S.31" vType="car_commuter" speedFactor="1.12" vaporized=""/>
    <tripinfo id="commuter_N_S.32" depart="177.00" departLane="754598165#2_0" departPos="5.10" departSpeed="0.00" departDelay="17.00" arrival="231.00" arrivalLane="757092064#1_2" arrivalPos="81.46" arrivalSpeed="19.91" duration="54.00" routeLength="213.54" waitingTime="32.00" waitingCount="1" stopTime="0.00" timeLoss="42.56" rerouteNo="0" devices="tripinfo_commuter_N_S.32" vType="car_commuter" speedFactor="0.81" vaporized=""/>
    <tripinfo id="commuter_N_W.11" depart="157.00" departLane="754598165#2_0" departPos="5.10" departSpeed="0.00" departDelay="18.00" arrival="232.00" arrivalLane="978400303#0_3" arrivalPos="149.14" arrivalSpeed="19.92" duration="75.00" routeLength="273.05" waitingTime="49.00" waitingCount="1" stopTime="0.00" timeLoss="59.19" rerouteNo="0" devices="tripinfo_commuter_N_W.11" vType="car_commuter" speedFactor="0.87" vaporized=""/>
    <tripinfo id="commuter_N_S.33" depart="182.00" departLane="754598165#2_0" departPos="5.10" departSpeed="0.00" departDelay="9.00" arrival="233.00" arrivalLane="757092064#1_1" arrivalPos="81.46" arrivalSpeed="19.19" duration="51.00" routeLength="213.54" waitingTime="27.00" waitingCount="1" stopTime="0.00" timeLoss="40.06" rerouteNo="0" devices="tripinfo_commuter_N_S.33" vType="car_commuter" speedFactor="1.03" vaporized=""/>
    <tripinfo id="commuter_N_E.11" depart="154.00" departLane="754598165#2_0" departPos="5.10" departSpeed="0.00" departDelay="15.00" arrival="236.00" arrivalLane="563175146#1_0" arrivalPos="228.90" arrivalSpeed="18.88" duration="82.00" routeLength="331.30" waitingTime="51.00" waitingCount="1" stopTime="0.00" timeLoss="64.00" rerouteNo="0" devices="tripinfo_commuter_N_E.11" vType="car_commuter" speedFactor="0.92" vaporized=""/>
    <tripinfo id="commuter_N_E.12" depart="161.00" departLane="754598165#2_0" departPos="5.10" departSpeed="0.00" departDelay="17.00" arrival="238.00" arrivalLane="563175146#1_0" arrivalPos="228.90" arrivalSpeed="19.77" duration="77.00" routeLength="331.30" waitingTime="46.00" waitingCount="1" stopTime="0.00" timeLoss="58.91" rerouteNo="0" devices="tripinfo_commuter_N_E.12" vType="car_commuter" speedFactor="1.03" vaporized=""/>
    <tripinfo id="commuter_N_E.13" depart="164.00" departLane="754598165#2_0" departPos="5.10" departSpeed="0.00" departDelay="16.00" arrival="239.00" arrivalLane="563175146#1_0" arrivalPos="228.90" arrivalSpeed="19.64" duration="75.00" routeLength="331.30" waitingTime="45.00" waitingCount="1" stopTime="0.00" timeLoss="57.29" rerouteNo="0" devices="tripinfo_commuter_N_E.13" vType="car_commuter" speedFactor="0.95" vaporized=""/>