<?xml version="1.0" encoding="UTF-8"?>

<!-- generated on 2025-06-02 23:33:57 by Eclipse SUMO sumo Version 1.22.0
<sumoConfiguration xmlns:xsi="http://www.w3.org/2001/XMLSchema-instance" xsi:noNamespaceSchemaLocation="http://sumo.dlr.de/xsd/sumoConfiguration.xsd">

    <input>
        <net-file value="osm.net.xml"/>
        <route-files value="route.rou.xml"/>
    </input>

    <output>
        <summary-output value="summary_fixed_time.xml"/>
        <tripinfo-output value="tripinfo_fixed_time.xml"/>
    </output>

    <time>
        <begin value="0"/>
        <end value="3600"/>
    </time>

    <processing>
        <time-to-teleport value="-1"/>
        <waiting-time-memory value="1000"/>
    </processing>

    <report>
        <verbose value="true"/>
        <duration-log.statistics value="true"/>
        <no-step-log value="true"/>
    </report>

    <random_number>
        <seed value="42"/>
    </random_number>

</sumoConfiguration>
-->

<tripinfos xmlns:xsi="http://www.w3.org/2001/XMLSchema-instance" xsi:noNamespaceSchemaLocation="http://sumo.dlr.de/xsd/tripinfo_file.xsd">
    <tripinfo id="bg_E_S.0" depart="7.00" departLane="749662140#0_0" departPos="5.10" departSpeed="0.00" departDelay="2.00" arrival="31.00" arrivalLane="757092064#1_0" arrivalPos="81.46" arrivalSpeed="18.83" duration="24.00" routeLength="177.43" waitingTime="0.00" waitingCount="0" stopTime="0.00" timeLoss="13.14" rerouteNo="0" devices="tripinfo_bg_E_S.0" vType="car_commuter" speedFactor="0.88" vaporized=""/>
    <tripinfo id="bg_E_W.0" depart="4.00" departLane="749662140#0_0" departPos="5.10" departSpeed="0.00" departDelay="0.00" arrival="33.00" arrivalLane="978400303#0_0" arrivalPos="149.14" arrivalSpeed="19.69" duration="29.00" routeLength="297.03" waitingTime="2.00" waitingCount="1" stopTime="0.00" timeLoss="14.04" rerouteNo="0" devices="tripinfo_bg_E_W.0" vType="car_commuter" speedFactor="1.16" vaporized=""/>
    <tripinfo id="bg_E_S.1" depart="10.00" departLane="749662140#0_0" departPos="5.10" departSpeed="0.00" departDelay="0.00" arrival="33.00" arrivalLane="757092064#1_0" arrivalPos="81.46" arrivalSpeed="19.36" duration="23.00" routeLength="177.43" waitingTime="0.00" waitingCount="0" stopTime="0.00" timeLoss="12.71" rerouteNo="0" devices="tripinfo_bg_E_S.1" vType="car_commuter" speedFactor="1.13" vaporized=""/>
    <tripinfo id="bg_E_W.1" depart="16.00" departLane="749662140#0_0" departPos="5.10" departSpeed="0.00" departDelay="0.00" arrival="36.00" arrivalLane="978400303#0_1" arrivalPos="149.14" arrivalSpeed="19.53" duration="20.00" routeLength="297.03" waitingTime="0.00" waitingCount="0" stopTime="0.00" timeLoss="5.02" rerouteNo="0" devices="tripinfo_bg_E_W.1" vType="car_commuter" speedFactor="1.00" vaporized=""/>
    <tripinfo id="bg_E_S.2" depart="22.00" departLane="749662140#0_0" departPos="5.10" departSpeed="0.00" departDelay="0.00" arrival="39.00" arrivalLane="757092064#1_0" arrivalPos="81.46" arrivalSpeed="18.42" duration="17.00" routeLength="177.43" waitingTime="0.00" waitingCount="0" stopTime="0.00" timeLoss="7.43" rerouteNo="0" devices="tripinfo_bg_E_S.2" vType="car_commuter" speedFactor="1.16" vaporized=""/>
    <tripinfo id="commuter_N_S.0" depart="2.00" departLane="754598165#2_0" departPos="5.10" departSpeed="0.00" departDelay="0.00" arrival="50.00" arrivalLane="757092064#1_0" arrivalPos="81.46" arrivalSpeed="18.85" duration="48.00" routeLength="213.54" waitingTime="25.00" waitingCount="1" stopTime="0.00" timeLoss="36.93" rerouteNo="0" devices="tripinfo_commuter_N_S.0" vType="car_commuter" speedFactor="0.95" vaporized=""/>
    <tripinfo id="commuter_N_S.1" depart="9.00" departLane="754598165#2_0" departPos="5.10" departSpeed="0.00" departDelay="2.00" arrival="50.00" arrivalLane="757092064#1_1" arrivalPos="81.46" arrivalSpeed="18.79" duration="41.00" routeLength="213.54" waitingTime="17.00" waitingCount="1" stopTime="0.00" timeLoss="29.53" rerouteNo="0" devices="tripinfo_commuter_N_S.1" vType="car_commuter" speedFactor="1.08" vaporized=""/>
    <tripinfo id="commuter_N_S.2" depart="18.00" departLane="754598165#2_0" departPos="5.10" departSpeed="0.00" departDelay="4.00" arrival="51.00" arrivalLane="757092064#1_1" arrivalPos="81.46" arrivalSpeed="19.31" duration="33.00" routeLength="213.54" waitingTime="10.00" waitingCount="1" stopTime="0.00" timeLoss="22.28" rerouteNo="0" devices="tripinfo_commuter_N_S.2" vType="car_commuter" speedFactor="0.84" vaporized=""/>
    <tripinfo id="commuter_N_W.0" depart="5.00" departLane="754598165#2_0" departPos="5.10" departSpeed="0.00" departDelay="2.00" arrival="53.00" arrivalLane="978400303#0_3" arrivalPos="149.14" arrivalSpeed="19.62" duration="48.00" routeLength="273.05" waitingTime="22.00" waitingCount="1" stopTime="0.00" timeLoss="32.49" rerouteNo="0" devices="tripinfo_commuter_N_W.0" vType="car_commuter" speedFactor="1.07" vaporized=""/>
    <tripinfo id="commuter_N_S.3" depart="22.00" departLane="754598165#2_0" departPos="5.10" departSpeed="0.00" departDelay="0.00" arrival="53.00" arrivalLane="757092064#1_1" arrivalPos="81.46" arrivalSpeed="18.82" duration="31.00" routeLength="213.54" waitingTime="7.00" waitingCount="1" stopTime="0.00" timeLoss="20.17" rerouteNo="0" devices="tripinfo_commuter_N_S.3" vType="car_commuter" speedFactor="0.82" vaporized=""/>
    <tripinfo id="commuter_N_S.4" depart="25.00" departLane="754598165#2_0" departPos="5.10" departSpeed="0.00" departDelay="1.00" arrival="53.00" arrivalLane="757092064#1_2" arrivalPos="81.46" arrivalSpeed="19.56" duration="28.00" routeLength="213.54" waitingTime="4.00" waitingCount="1" stopTime="0.00" timeLoss="17.26" rerouteNo="0" devices="tripinfo_commuter_N_S.4" vType="car_commuter" speedFactor="0.94" vaporized=""/>
    <tripinfo id="commuter_N_W.1" depart="21.00" departLane="754598165#2_0" departPos="5.10" departSpeed="0.00" departDelay="2.00" arrival="55.00" arrivalLane="978400303#0_3" arrivalPos="149.14" arrivalSpeed="18.82" duration="34.00" routeLength="273.05" waitingTime="7.00" waitingCount="1" stopTime="0.00" timeLoss="18.55" rerouteNo="0" devices="tripinfo_commuter_N_W.1" vType="car_commuter" speedFactor="0.99" vaporized=""/>
    <tripinfo id="commuter_N_S.5" depart="31.00" departLane="754598165#2_0" departPos="5.10" departSpeed="0.00" departDelay="1.00" arrival="55.00" arrivalLane="757092064#1_1" arrivalPos="81.46" arrivalSpeed="19.93" duration="24.00" routeLength="213.54" waitingTime="1.00" waitingCount="1" stopTime="0.00" timeLoss="12.62" rerouteNo="0" devices="tripinfo_commuter_N_S.5" vType="car_commuter" speedFactor="1.13" vaporized=""/>
    <tripinfo id="commuter_N_S.6" depart="33.00" departLane="754598165#2_0" departPos="5.10" departSpeed="0.00" departDelay="0.00" arrival="55.00" arrivalLane="757092064#1_2" arrivalPos="81.46" arrivalSpeed="19.53" duration="22.00" routeLength="213.54" waitingTime="0.00" waitingCount="0" stopTime="0.00" timeLoss="10.80" rerouteNo="0" devices="tripinfo_commuter_N_S.6" vType="car_commuter" speedFactor="0.88" vaporized=""/>
    <tripinfo id="commuter_N_S.7" depart="37.00" departLane="754598165#2_0" departPos="5.10" departSpeed="0.00" departDelay="0.00" arrival="57.00" arrivalLane="757092064#1_1" arrivalPos="81.46" arrivalSpeed="19.16" duration="20.00" routeLength="213.54" waitingTime="0.00" waitingCount="0" stopTime="0.00" timeLoss="8.66" rerouteNo="0" devices="tripinfo_commuter_N_S.7" vType="car_commuter" speedFactor="1.24" vaporized=""/>
    <tripinfo id="commuter_N_E.0" depart="6.00" departLane="754598165#2_0" departPos="5.10" departSpeed="0.00" departDelay="0.00" arrival="58.00" arrivalLane="563175146#1_0" arrivalPos="228.90" arrivalSpeed="19.24" duration="52.00" routeLength="331.30" waitingTime="22.00" waitingCount="1" stopTime="0.00" timeLoss="33.63" rerouteNo="0" devices="tripinfo_commuter_N_E.0" vType="car_commuter" speedFactor="0.93" vaporized=""/>
    <tripinfo id="commuter_N_S.8" depart="41.00" departLane="754598165#2_0" departPos="5.10" departSpeed="0.00" departDelay="0.00" arrival="58.00" arrivalLane="757092064#1_0" arrivalPos="81.46" arrivalSpeed="19.49" duration="17.00" routeLength="213.54" waitingTime="0.00" waitingCount="0" stopTime="0.00" timeLoss="6.14" rerouteNo="0" devices="tripinfo_commuter_N_S.8" vType="car_commuter" speedFactor="1.10" vaporized=""/>
    <tripinfo id="commuter_N_E.1" depart="12.00" departLane="754598165#2_0" departPos="5.10" departSpeed="0.00" departDelay="5.00" arrival="59.00" arrivalLane="563175146#1_0" arrivalPos="228.90" arrivalSpeed="19.99" duration="47.00" routeLength="331.30" waitingTime="17.00" waitingCount="1" stopTime="0.00" timeLoss="29.50" rerouteNo="0" devices="tripinfo_commuter_N_E.1" vType="car_commuter" speedFactor="1.03" vaporized=""/>
    <tripinfo id="commuter_N_S.9" depart="44.00" departLane="754598165#2_0" departPos="5.10" departSpeed="0.00" departDelay="0.00" arrival="60.00" arrivalLane="757092064#1_1" arrivalPos="81.46" arrivalSpeed="18.79" duration="16.00" routeLength="213.54" waitingTime="0.00" waitingCount="0" stopTime="0.00" timeLoss="5.29" rerouteNo="0" devices="tripinfo_commuter_N_S.9" vType="car_commuter" speedFactor="1.12" vaporized=""/>
    <tripinfo id="commuter_N_W.2" depart="36.00" departLane="754598165#2_0" departPos="5.10" departSpeed="0.00" departDelay="3.00" arrival="61.00" arrivalLane="978400303#0_3" arrivalPos="149.14" arrivalSpeed="19.49" duration="25.00" routeLength="273.05" waitingTime="0.00" waitingCount="0" stopTime="0.00" timeLoss="9.58" rerouteNo="0" devices="tripinfo_commuter_N_W.2" vType="car_commuter" speedFactor="1.00" vaporized=""/>
    <tripinfo id="commuter_N_E.2" depart="15.00" departLane="754598165#2_0" departPos="5.10" departSpeed="0.00" departDelay="3.00" arrival="62.00" arrivalLane="563175146#1_0" arrivalPos="228.90" arrivalSpeed="19.01" duration="47.00" routeLength="331.30" waitingTime="16.00" waitingCount="1" stopTime="0.00" timeLoss="28.45" rerouteNo="0" devices="tripinfo_commuter_N_E.2" vType="car_commuter" speedFactor="0.88" vaporized=""/>
    <tripinfo id="commuter_N_E.3" depart="28.00" departLane="754598165#2_0" departPos="5.10" departSpeed="0.00" departDelay="4.00" arrival="63.00" arrivalLane="563175146#1_0" arrivalPos="228.90" arrivalSpeed="18.94" duration="35.00" routeLength="331.30" waitingTime="5.00" waitingCount="1" stopTime="0.00" timeLoss="17.29" rerouteNo="0" devices="tripinfo_commuter_N_E.3" vType="car_commuter" speedFactor="0.99" vaporized=""/>
    <tripinfo id="commuter_N_W.3" depart="48.00" departLane="754598165#2_0" departPos="5.10" departSpeed="0.00" departDelay="0.00" arrival="69.00" arrivalLane="978400303#0_3" arrivalPos="149.14" arrivalSpeed="19.41" duration="21.00" routeLength="273.05" waitingTime="0.00" waitingCount="0" stopTime="0.00" timeLoss="5.17" rerouteNo="0" devices="tripinfo_commuter_N_W.3" vType="car_commuter" speedFactor="0.97" vaporized=""/>
    <tripinfo id="commuter_N_W.4" depart="49.00" departLane="754598165#2_0" departPos="5.10" departSpeed="0.00" departDelay="0.00" arrival="71.00" arrivalLane="978400303#0_3" arrivalPos="149.14" arrivalSpeed="19.49" duration="22.00" routeLength="273.05" waitingTime="0.00" waitingCount="0" stopTime="0.00" timeLoss="6.25" rerouteNo="0" devices="tripinfo_commuter_N_W.4" vType="car_commuter" speedFactor="1.08" vaporized=""/>
    <tripinfo id="bg_E_S.3" depart="41.00" departLane="749662140#0_0" departPos="5.10" departSpeed="0.00" departDelay="0.00" arrival="111.00" arrivalLane="757092064#1_0" arrivalPos="81.46" arrivalSpeed="19.92" duration="70.00" routeLength="177.43" waitingTime="48.00" waitingCount="1" stopTime="0.00" timeLoss="59.27" rerouteNo="0" devices="tripinfo_bg_E_S.3" vType="car_commuter" speedFactor="0.87" vaporized=""/>
    <tripinfo id="bg_E_N.0" depart="44.00" departLane="749662140#0_0" departPos="5.10" departSpeed="0.00" departDelay="2.00" arrival="114.00" arrivalLane="749988360#0_2" arrivalPos="93.21" arrivalSpeed="19.11" duration="70.00" routeLength="241.59" waitingTime="45.00" waitingCount="1" stopTime="0.00" timeLoss="56.89" rerouteNo="0" devices="tripinfo_bg_E_N.0" vType="car_commuter" speedFactor="1.05" vaporized=""/>
    <tripinfo id="bg_E_W.2" depart="49.00" departLane="749662140#0_0" departPos="5.10" departSpeed="0.00" departDelay="0.00" arrival="117.00" arrivalLane="978400303#0_1" arrivalPos="149.14" arrivalSpeed="19.85" duration="68.00" routeLength="297.03" waitingTime="39.00" waitingCount="1" stopTime="0.00" timeLoss="52.91" rerouteNo="0" devices="tripinfo_bg_E_W.2" vType="car_commuter" speedFactor="0.94" vaporized=""/>
    <tripinfo id="bg_E_W.4" depart="79.00" departLane="749662140#0_0" departPos="5.10" departSpeed="0.00" departDelay="0.00" arrival="117.00" arrivalLane="978400303#0_2" arrivalPos="149.14" arrivalSpeed="19.90" duration="38.00" routeLength="297.03" waitingTime="11.00" waitingCount="1" stopTime="0.00" timeLoss="23.14" rerouteNo="0" devices="tripinfo_bg_E_W.4" vType="car_commuter" speedFactor="1.15" vaporized=""/>
    <tripinfo id="bg_E_W.3" depart="71.00" departLane="749662140#0_0" departPos="5.10" departSpeed="0.00" departDelay="0.00" arrival="119.00" arrivalLane="978400303#0_0" arrivalPos="149.14" arrivalSpeed="19.23" duration="48.00" routeLength="297.03" waitingTime="20.00" waitingCount="1" stopTime="0.00" timeLoss="32.20" rerouteNo="0" devices="tripinfo_bg_E_W.3" vType="car_commuter" speedFactor="0.82" vaporized=""/>
    <tripinfo id="bg_E_W.5" depart="91.00" departLane="749662140#0_0" departPos="5.10" departSpeed="0.00" departDelay="0.00" arrival="119.00" arrivalLane="978400303#0_1" arrivalPos="149.14" arrivalSpeed="19.77" duration="28.00" routeLength="297.03" waitingTime="0.00" waitingCount="0" stopTime="0.00" timeLoss="12.47" rerouteNo="0" devices="tripinfo_bg_E_W.5" vType="car_commuter" speedFactor="1.07" vaporized=""/>
    <tripinfo id="bg_E_W.6" depart="102.00" departLane="749662140#0_0" departPos="5.10" departSpeed="0.00" departDelay="0.00" arrival="122.00" arrivalLane="978400303#0_0" arrivalPos="149.14" arrivalSpeed="19.81" duration="20.00" routeLength="297.03" waitingTime="0.00" waitingCount="0" stopTime="0.00" timeLoss="4.84" rerouteNo="0" devices="tripinfo_bg_E_W.6" vType="car_commuter" speedFactor="1.12" vaporized=""/>
    <tripinfo id="commuter_N_S.10" depart="56.00" departLane="754598165#2_0" departPos="5.10" departSpeed="0.00" departDelay="0.00" arrival="132.00" arrivalLane="757092064#1_0" arrivalPos="81.46" arrivalSpeed="18.75" duration="76.00" routeLength="213.54" waitingTime="53.00" waitingCount="1" stopTime="0.00" timeLoss="65.27" rerouteNo="0" devices="tripinfo_commuter_N_S.10" vType="car_commuter" speedFactor="0.91" vaporized=""/>
    <tripinfo id="commuter_N_S.11" depart="59.00" departLane="754598165#2_0" departPos="5.10" departSpeed="0.00" departDelay="2.00" arrival="133.00" arrivalLane="757092064#1_1" arrivalPos="81.46" arrivalSpeed="19.56" duration="74.00" routeLength="213.54" waitingTime="50.00" waitingCount="1" stopTime="0.00" timeLoss="62.51" rerouteNo="0" devices="tripinfo_commuter_N_S.11" vType="car_commuter" speedFactor="1.00" vaporized=""/>
    <tripinfo id="commuter_N_S.12" depart="67.00" departLane="754598165#2_0" departPos="5.10" departSpeed="0.00" departDelay="0.00" arrival="134.00" arrivalLane="757092064#1_0" arrivalPos="81.46" arrivalSpeed="18.92" duration="67.00" routeLength="213.54" waitingTime="44.00" waitingCount="1" stopTime="0.00" timeLoss="55.82" rerouteNo="0" devices="tripinfo_commuter_N_S.12" vType="car_commuter" speedFactor="1.08" vaporized=""/>
    <tripinfo id="commuter_N_S.13" depart="74.00" departLane="754598165#2_0" departPos="5.10" departSpeed="0.00" departDelay="0.00" arrival="134.00" arrivalLane="757092064#1_1" arrivalPos="81.46" arrivalSpeed="19.90" duration="60.00" routeLength="213.54" waitingTime="37.00" waitingCount="1" stopTime="0.00" timeLoss="49.21" rerouteNo="0" devices="tripinfo_commuter_N_S.13" vType="car_commuter" speedFactor="1.01" vaporized=""/>
    <tripinfo id="commuter_N_S.14" depart="79.00" departLane="754598165#2_0" departPos="5.10" departSpeed="0.00" departDelay="0.00" arrival="136.00" arrivalLane="757092064#1_0" arrivalPos="81.46" arrivalSpeed="18.94" duration="57.00" routeLength="213.54" waitingTime="32.00" waitingCount="1" stopTime="0.00" timeLoss="46.13" rerouteNo="0" devices="tripinfo_commuter_N_S.14" vType="car_commuter" speedFactor="1.15" vaporized=""/>
    <tripinfo id="commuter_N_S.15" depart="96.00" departLane="754598165#2_0" departPos="5.10" departSpeed="0.00" departDelay="1.00" arrival="136.00" arrivalLane="757092064#1_1" arrivalPos="81.46" arrivalSpeed="19.84" duration="40.00" routeLength="213.54" waitingTime="16.00" waitingCount="1" stopTime="0.00" timeLoss="28.77" rerouteNo="0" devices="tripinfo_commuter_N_S.15" vType="car_commuter" speedFactor="0.92" vaporized=""/>
    <tripinfo id="commuter_N_W.5" depart="70.00" departLane="754598165#2_0" departPos="5.10" departSpeed="0.00" departDelay="2.00" arrival="137.00" arrivalLane="978400303#0_3" arrivalPos="149.14" arrivalSpeed="19.30" duration="67.00" routeLength="273.05" waitingTime="40.00" waitingCount="1" stopTime="0.00" timeLoss="50.95" rerouteNo="0" devices="tripinfo_commuter_N_W.5" vType="car_commuter" speedFactor="0.94" vaporized=""/>
    <tripinfo id="commuter_N_W.6" depart="71.00" departLane="754598165#2_0" departPos="5.10" departSpeed="0.00" departDelay="2.00" arrival="138.00" arrivalLane="978400303#0_3" arrivalPos="149.14" arrivalSpeed="19.97" duration="67.00" routeLength="273.05" waitingTime="38.00" waitingCount="1" stopTime="0.00" timeLoss="52.04" rerouteNo="0" devices="tripinfo_commuter_N_W.6" vType="car_commuter" speedFactor="1.08" vaporized=""/>
    <tripinfo id="commuter_N_S.16" depart="99.00" departLane="754598165#2_0" departPos="5.10" departSpeed="0.00" departDelay="2.00" arrival="138.00" arrivalLane="757092064#1_1" arrivalPos="81.46" arrivalSpeed="19.71" duration="39.00" routeLength="213.54" waitingTime="14.00" waitingCount="1" stopTime="0.00" timeLoss="27.40" rerouteNo="0" devices="tripinfo_commuter_N_S.16" vType="car_commuter" speedFactor="0.86" vaporized=""/>
    <tripinfo id="commuter_N_S.17" depart="105.00" departLane="754598165#2_0" departPos="5.10" departSpeed="0.00" departDelay="7.00" arrival="138.00" arrivalLane="757092064#1_2" arrivalPos="81.46" arrivalSpeed="18.88" duration="33.00" routeLength="213.54" waitingTime="8.00" waitingCount="1" stopTime="0.00" timeLoss="22.24" rerouteNo="0" devices="tripinfo_commuter_N_S.17" vType="car_commuter" speedFactor="0.94" vaporized=""/>
    <tripinfo id="commuter_N_S.18" depart="108.00" departLane="754598165#2_0" departPos="5.10" departSpeed="0.00" departDelay="8.00" arrival="139.00" arrivalLane="757092064#1_1" arrivalPos="81.46" arrivalSpeed="19.28" duration="31.00" routeLength="213.54" waitingTime="6.00" waitingCount="1" stopTime="0.00" timeLoss="20.31" rerouteNo="0" devices="tripinfo_commuter_N_S.18" vType="car_commuter" speedFactor="0.83" vaporized=""/>
    <tripinfo id="commuter_N_W.7" depart="82.00" departLane="754598165#2_0" departPos="5.10" departSpeed="0.00" departDelay="1.00" arrival="140.00" arrivalLane="978400303#0_3" arrivalPos="149.14" arrivalSpeed="19.02" duration="58.00" routeLength="273.05" waitingTime="30.00" waitingCount="1" stopTime="0.00" timeLoss="42.94" rerouteNo="0" devices="tripinfo_commuter_N_W.7" vType="car_commuter" speedFactor="1.06" vaporized=""/>
    <tripinfo id="commuter_N_S.20" depart="114.00" departLane="754598165#2_0" departPos="5.10" departSpeed="0.00" departDelay="8.00" arrival="140.00" arrivalLane="757092064#1_2" arrivalPos="81.46" arrivalSpeed="19.40" duration="26.00" routeLength="213.54" waitingTime="1.00" waitingCount="1" stopTime="0.00" timeLoss="15.09" rerouteNo="0" devices="tripinfo_commuter_N_S.20" vType="car_commuter" speedFactor="0.85" vaporized=""/>
    <tripinfo id="commuter_N_S.19" depart="111.00" departLane="754598165#2_0" departPos="5.10" departSpeed="0.00" departDelay="7.00" arrival="141.00" arrivalLane="757092064#1_0" arrivalPos="81.46" arrivalSpeed="18.72" duration="30.00" routeLength="213.54" waitingTime="6.00" waitingCount="1" stopTime="0.00" timeLoss="19.27" rerouteNo="0" devices="tripinfo_commuter_N_S.19" vType="car_commuter" speedFactor="0.99" vaporized=""/>
    <tripinfo id="commuter_N_S.21" depart="116.00" departLane="754598165#2_0" departPos="5.10" departSpeed="0.00" departDelay="5.00" arrival="141.00" arrivalLane="757092064#1_1" arrivalPos="81.46" arrivalSpeed="19.35" duration="25.00" routeLength="213.54" waitingTime="2.00" waitingCount="1" stopTime="0.00" timeLoss="14.29" rerouteNo="0" devices="tripinfo_commuter_N_S.21" vType="car_commuter" speedFactor="1.04" vaporized=""/>
    <tripinfo id="commuter_N_S.22" depart="119.00" departLane="754598165#2_0" departPos="5.10" departSpeed="0.00" departDelay="6.00" arrival="143.00" arrivalLane="757092064#1_0" arrivalPos="81.46" arrivalSpeed="20.00" duration="24.00" routeLength="213.54" waitingTime="2.00" waitingCount="1" stopTime="0.00" timeLoss="13.16" rerouteNo="0" devices="tripinfo_commuter_N_S.22" vType="car_commuter" speedFactor="0.91" vaporized=""/>
    <tripinfo id="commuter_N_S.23" depart="121.00" departLane="754598165#2_0" departPos="5.10" departSpeed="0.00" departDelay="7.00" arrival="143.00" arrivalLane="757092064#1_1" arrivalPos="81.46" arrivalSpeed="18.76" duration="22.00" routeLength="213.54" waitingTime="0.00" waitingCount="0" stopTime="0.00" timeLoss="11.01" rerouteNo="0" devices="tripinfo_commuter_N_S.23" vType="car_commuter" speedFactor="1.05" vaporized=""/>
    <tripinfo id="commuter_N_S.24" depart="126.00" departLane="754598165#2_0" departPos="5.10" departSpeed="0.00" departDelay="8.00" arrival="143.00" arrivalLane="757092064#1_2" arrivalPos="81.46" arrivalSpeed="19.80" duration="17.00" routeLength="213.54" waitingTime="0.00" waitingCount="0" stopTime="0.00" timeLoss="6.16" rerouteNo="0" devices="tripinfo_commuter_N_S.24" vType="car_commuter" speedFactor="1.07" vaporized=""/>
    <tripinfo id="commuter_N_E.4" depart="93.00" departLane="754598165#2_0" departPos="5.10" departSpeed="0.00" departDelay="0.00" arrival="144.00" arrivalLane="563175146#1_0" arrivalPos="228.90" arrivalSpeed="19.68" duration="51.00" routeLength="331.30" waitingTime="21.00" waitingCount="1" stopTime="0.00" timeLoss="33.36" rerouteNo="0" devices="tripinfo_commuter_N_E.4" vType="car_commuter" speedFactor="1.06" vaporized=""/>
    <tripinfo id="commuter_N_S.25" depart="127.00" departLane="754598165#2_0" departPos="5.10" departSpeed="0.00" departDelay="4.00" arrival="145.00" arrivalLane="757092064#1_1" arrivalPos="81.46" arrivalSpeed="19.73" duration="18.00" routeLength="213.54" waitingTime="0.00" waitingCount="0" stopTime="0.00" timeLoss="6.68" rerouteNo="0" devices="tripinfo_commuter_N_S.25" vType="car_commuter" speedFactor="1.14" vaporized=""/>
    <tripinfo id="commuter_N_W.8" depart="118.00" departLane="754598165#2_0" departPos="5.10" departSpeed="0.00" departDelay="7.00" arrival="146.00" arrivalLane="978400303#0_3" arrivalPos="149.14" arrivalSpeed="18.96" duration="28.00" routeLength="273.05" waitingTime="0.00" waitingCount="0" stopTime="0.00" timeLoss="12.22" rerouteNo="0" devices="tripinfo_commuter_N_W.8" vType="car_commuter" speedFactor="1.02" vaporized=""/>
    <tripinfo id="commuter_N_E.5" depart="102.00" departLane="754598165#2_0" departPos="5.10" departSpeed="0.00" departDelay="5.00" arrival="147.00" arrivalLane="563175146#1_0" arrivalPos="228.90" arrivalSpeed="19.50" duration="45.00" routeLength="331.30" waitingTime="14.00" waitingCount="1" stopTime="0.00" timeLoss="26.73" rerouteNo="0" devices="tripinfo_commuter_N_E.5" vType="car_commuter" speedFactor="0.95" vaporized=""/>
    <tripinfo id="commuter_N_S.26" depart="129.00" departLane="754598165#2_0" departPos="5.10" departSpeed="0.00" departDelay="5.00" arrival="147.00" arrivalLane="757092064#1_1" arrivalPos="81.46" arrivalSpeed="19.49" duration="18.00" routeLength="213.54" waitingTime="0.00" waitingCount="0" stopTime="0.00" timeLoss="6.36" rerouteNo="0" devices="tripinfo_commuter_N_S.26" vType="car_commuter" speedFactor="1.21" vaporized=""/>
    <tripinfo id="commuter_N_S.27" depart="132.00" departLane="754598165#2_0" departPos="5.10" departSpeed="0.00" departDelay="3.00" arrival="148.00" arrivalLane="757092064#1_0" arrivalPos="81.46" arrivalSpeed="19.50" duration="16.00" routeLength="213.54" waitingTime="0.00" waitingCount="0" stopTime="0.00" timeLoss="4.98" rerouteNo="0" devices="tripinfo_commuter_N_S.27" vType="car_commuter" speedFactor="0.97" vaporized=""/>
    <tripinfo id="commuter_N_E.6" depart="123.00" departLane="754598165#2_0" departPos="5.10" departSpeed="0.00" departDelay="7.00" arrival="152.00" arrivalLane="563175146#1_0" arrivalPos="228.90" arrivalSpeed="19.86" duration="29.00" routeLength="331.30" waitingTime="0.00" waitingCount="0" stopTime="0.00" timeLoss="10.99" rerouteNo="0" devices="tripinfo_commuter_N_E.6" vType="car_commuter" speedFactor="1.10" vaporized=""/>
    <tripinfo id="bg_E_N.1" depart="112.00" departLane="749662140#0_0" departPos="5.10" departSpeed="0.00" departDelay="2.00" arrival="196.00" arrivalLane="749988360#0_2" arrivalPos="93.21" arrivalSpeed="19.81" duration="84.00" routeLength="241.59" waitingTime="59.00" waitingCount="1" stopTime="0.00" timeLoss="71.18" rerouteNo="0" devices="tripinfo_bg_E_N.1" vType="car_commuter" speedFactor="0.92" vaporized=""/>
    <tripinfo id="bg_E_S.4" depart="113.00" departLane="749662140#0_0" departPos="5.10" departSpeed="0.00" departDelay="1.00" arrival="196.00" arrivalLane="757092064#1_0" arrivalPos="81.46" arrivalSpeed="18.51" duration="83.00" routeLength="177.43" waitingTime="60.00" waitingCount="1" stopTime="0.00" timeLoss="72.88" rerouteNo="0" devices="tripinfo_bg_E_S.4" vType="car_commuter" speedFactor="1.14" vaporized=""/>
    <tripinfo id="bg_E_N.2" depart="123.00" departLane="749662140#0_0" departPos="5.10" departSpeed="0.00" departDelay="0.00" arrival="198.00" arrivalLane="749988360#0_2" arrivalPos="93.21" arrivalSpeed="19.06" duration="75.00" routeLength="241.59" waitingTime="49.00" waitingCount="1" stopTime="0.00" timeLoss="61.92" rerouteNo="0" devices="tripinfo_bg_E_N.2" vType="car_commuter" speedFactor="0.87" vaporized=""/>
    <tripinfo id="bg_E_W.7" depart="109.00" departLane="749662140#0_0" departPos="5.10" departSpeed="0.00" departDelay="0.00" arrival="199.00" arrivalLane="978400303#0_0" arrivalPos="149.14" arrivalSpeed="19.28" duration="90.00" routeLength="297.03" waitingTime="62.00" waitingCount="1" stopTime="0.00" timeLoss="74.83" rerouteNo="0" devices="tripinfo_bg_E_W.7" vType="car_commuter" speedFactor="1.03" vaporized=""/>
    <tripinfo id="bg_E_S.5" depart="175.00" departLane="749662140#0_0" departPos="5.10" departSpeed="0.00" departDelay="0.00" arrival="199.00" arrivalLane="757092064#1_0" arrivalPos="81.46" arrivalSpeed="18.41" duration="24.00" routeLength="177.43" waitingTime="0.00" waitingCount="0" stopTime="0.00" timeLoss="13.55" rerouteNo="0" devices="tripinfo_bg_E_S.5" vType="car_commuter" speedFactor="1.00" vaporized=""/>
    <tripinfo id="bg_E_N.3" depart="135.00" departLane="749662140#0_0" departPos="5.10" departSpeed="0.00" departDelay="0.00" arrival="200.00" arrivalLane="749988360#0_2" arrivalPos="93.21" arrivalSpeed="19.76" duration="65.00" routeLength="241.59" waitingTime="39.00" waitingCount="1" stopTime="0.00" timeLoss="51.86" rerouteNo="0" devices="tripinfo_bg_E_N.3" vType="car_commuter" speedFactor="0.94" vaporized=""/>
    <tripinfo id="bg_E_N.4" depart="156.00" departLane="749662140#0_0" departPos="5.10" departSpeed="0.00" departDelay="0.00" arrival="202.00" arrivalLane="749988360#0_2" arrivalPos="93.21" arrivalSpeed="19.59" duration="46.00" routeLength="241.59" waitingTime="20.00" waitingCount="1" stopTime="0.00" timeLoss="32.92" rerouteNo="0" devices="tripinfo_bg_E_N.4" vType="car_commuter" speedFactor="1.10" vaporized=""/>
    <tripinfo id="bg_E_W.8" depart="181.00" departLane="749662140#0_0" departPos="5.10" departSpeed="0.00" departDelay="0.00" arrival="202.00" arrivalLane="978400303#0_1" arrivalPos="149.14" arrivalSpeed="19.37" duration="21.00" routeLength="297.03" waitingTime="0.00" waitingCount="0" stopTime="0.00" timeLoss="5.52" rerouteNo="0" devices="tripinfo_bg_E_W.8" vType="car_commuter" speedFactor="0.98" vaporized=""/>
    <tripinfo id="bg_E_N.5" depart="187.00" departLane="749662140#0_0" departPos="5.10" departSpeed="0.00" departDelay="0.00" arrival="204.00" arrivalLane="749988360#0_2" arrivalPos="93.21" arrivalSpeed="19.25" duration="17.00" routeLength="241.59" waitingTime="0.00" waitingCount="0" stopTime="0.00" timeLoss="4.34" rerouteNo="0" devices="tripinfo_bg_E_N.5" vType="car_commuter" speedFactor="1.22" vaporized=""/>
    <tripinfo id="commuter_N_S.28" depart="143.00" departLane="754598165#2_0" departPos="5.10" departSpeed="0.00" departDelay="0.00" arrival="215.00" arrivalLane="757092064#1_0" arrivalPos="81.46" arrivalSpeed="19.37" duration="72.00" routeLength="213.54" waitingTime="49.00" waitingCount="1" stopTime="0.00" timeLoss="60.78" rerouteNo="0" devices="tripinfo_commuter_N_S.28" vType="car_commuter" speedFactor="0.88" vaporized=""/>
    <tripinfo id="commuter_N_S.29" depart="152.00" departLane="754598165#2_0" departPos="5.10" departSpeed="0.00" departDelay="0.00" arrival="215.00" arrivalLane="757092064#1_1" arrivalPos="81.46" arrivalSpeed="19.63" duration="63.00" routeLength="213.54" waitingTime="39.00" waitingCount="1" stopTime="0.00" timeLoss="51.49" rerouteNo="0" devices="tripinfo_commuter_N_S.29" vType="car_commuter" speedFactor="1.16" vaporized=""/>
    <tripinfo id="commuter_N_S.31" depart="162.00" departLane="754598165#2_0" departPos="5.10" departSpeed="0.00" departDelay="0.00" arrival="216.00" arrivalLane="757092064#1_1" arrivalPos="81.46" arrivalSpeed="18.94" duration="54.00" routeLength="213.54" waitingTime="32.00" waitingCount="1" stopTime="0.00" timeLoss="43.18" rerouteNo="0" devices="tripinfo_commuter_N_S.31" vType="car_commuter" speedFactor="1.05" vaporized=""/>