<?xml version="1.0" encoding="UTF-8"?>

<!-- generated on 2025-06-03 02:11:08 by Eclipse SUMO sumo Version 1.22.0
<sumoConfiguration xmlns:xsi="http://www.w3.org/2001/XMLSchema-instance" xsi:noNamespaceSchemaLocation="http://sumo.dlr.de/xsd/sumoConfiguration.xsd">

    <input>
        <net-file value="osm.net.xml"/>
        <route-files value="route.rou.xml"/>
        <additional-files value="osm.poly.xml.gz"/>
    </input>

    <output>
        <summary-output value="summary_eval_offline_4act_ep4.xml"/>
        <tripinfo-output value="tripinfo_eval_offline_4act_ep4.xml"/>
    </output>

    <time>
        <begin value="0"/>
        <end value="3600"/>
    </time>

    <processing>
        <time-to-teleport value="-1"/>
        <waiting-time-memory value="1000"/>
    </processing>

    <report>
        <verbose value="true"/>
        <duration-log.statistics value="true"/>
        <no-step-log value="true"/>
    </report>

    <traci_server>
        <remote-port value="62881"/>
    </traci_server>

    <random_number>
        <seed value="12619"/>
    </random_number>

</sumoConfiguration>
-->

<tripinfos xmlns:xsi="http://www.w3.org/2001/XMLSchema-instance" xsi:noNamespaceSchemaLocation="http://sumo.dlr.de/xsd/tripinfo_file.xsd">
    <tripinfo id="bg_E_W.0" depart="2.00" departLane="749662140#0_0" departPos="5.10" departSpeed="0.00" departDelay="0.00" arrival="26.00" arrivalLane="978400303#0_0" arrivalPos="149.14" arrivalSpeed="18.83" duration="24.00" routeLength="297.03" waitingTime="0.00" waitingCount="0" stopTime="0.00" timeLoss="9.12" rerouteNo="0" devices="tripinfo_bg_E_W.0" vType="car_commuter" speedFactor="0.97" vaporized=""/>
    <tripinfo id="bg_E_W.1" depart="40.00" departLane="749662140#0_0" departPos="5.10" departSpeed="0.00" departDelay="0.00" arrival="60.00" arrivalLane="978400303#0_0" arrivalPos="149.14" arrivalSpeed="19.45" duration="20.00" routeLength="297.03" waitingTime="0.00" waitingCount="0" stopTime="0.00" timeLoss="4.86" rerouteNo="0" devices="tripinfo_bg_E_W.1" vType="car_commuter" speedFactor="0.96" vaporized=""/>
    <tripinfo id="bg_E_S.0" depart="48.00" departLane="749662140#0_0" departPos="5.10" departSpeed="0.00" departDelay="0.00" arrival="67.00" arrivalLane="757092064#1_0" arrivalPos="81.46" arrivalSpeed="19.81" duration="19.00" routeLength="177.43" waitingTime="0.00" waitingCount="0" stopTime="0.00" timeLoss="8.72" rerouteNo="0" devices="tripinfo_bg_E_S.0" vType="car_commuter" speedFactor="1.00" vaporized=""/>
    <tripinfo id="commuter_N_S.1" depart="10.00" departLane="754598165#2_0" departPos="5.10" departSpeed="0.00" departDelay="0.00" arrival="76.00" arrivalLane="757092064#1_1" arrivalPos="81.46" arrivalSpeed="18.77" duration="66.00" routeLength="213.54" waitingTime="42.00" waitingCount="1" stopTime="0.00" timeLoss="55.09" rerouteNo="0" devices="tripinfo_commuter_N_S.1" vType="car_commuter" speedFactor="1.12" vaporized=""/>
    <tripinfo id="commuter_N_S.2" depart="22.00" departLane="754598165#2_0" departPos="5.10" departSpeed="0.00" departDelay="0.00" arrival="76.00" arrivalLane="757092064#1_2" arrivalPos="81.46" arrivalSpeed="19.90" duration="54.00" routeLength="213.54" waitingTime="30.00" waitingCount="1" stopTime="0.00" timeLoss="42.69" rerouteNo="0" devices="tripinfo_commuter_N_S.2" vType="car_commuter" speedFactor="0.92" vaporized=""/>
    <tripinfo id="commuter_N_S.0" depart="0.00" departLane="754598165#2_0" departPos="5.10" departSpeed="0.00" departDelay="0.00" arrival="77.00" arrivalLane="757092064#1_0" arrivalPos="81.46" arrivalSpeed="19.23" duration="77.00" routeLength="213.54" waitingTime="53.00" waitingCount="1" stopTime="0.00" timeLoss="65.44" rerouteNo="0" devices="tripinfo_commuter_N_S.0" vType="car_commuter" speedFactor="0.85" vaporized=""/>
    <tripinfo id="commuter_N_S.3" depart="25.00" departLane="754598165#2_0" departPos="5.10" departSpeed="0.00" departDelay="1.00" arrival="78.00" arrivalLane="757092064#1_1" arrivalPos="81.46" arrivalSpeed="19.87" duration="53.00" routeLength="213.54" waitingTime="29.00" waitingCount="1" stopTime="0.00" timeLoss="41.64" rerouteNo="0" devices="tripinfo_commuter_N_S.3" vType="car_commuter" speedFactor="1.07" vaporized=""/>
    <tripinfo id="commuter_N_W.0" depart="28.00" departLane="754598165#2_0" departPos="5.10" departSpeed="0.00" departDelay="2.00" arrival="80.00" arrivalLane="978400303#0_3" arrivalPos="149.14" arrivalSpeed="18.90" duration="52.00" routeLength="273.05" waitingTime="26.00" waitingCount="1" stopTime="0.00" timeLoss="37.80" rerouteNo="0" devices="tripinfo_commuter_N_W.0" vType="car_commuter" speedFactor="1.31" vaporized=""/>
    <tripinfo id="commuter_N_E.0" depart="16.00" departLane="754598165#2_0" departPos="5.10" departSpeed="0.00" departDelay="0.00" arrival="84.00" arrivalLane="563175146#1_0" arrivalPos="228.90" arrivalSpeed="18.84" duration="68.00" routeLength="331.30" waitingTime="38.00" waitingCount="1" stopTime="0.00" timeLoss="50.14" rerouteNo="0" devices="tripinfo_commuter_N_E.0" vType="car_commuter" speedFactor="1.04" vaporized=""/>
    <tripinfo id="bg_E_W.2" depart="65.00" departLane="749662140#0_0" departPos="5.10" departSpeed="0.00" departDelay="0.00" arrival="93.00" arrivalLane="978400303#0_0" arrivalPos="149.14" arrivalSpeed="18.85" duration="28.00" routeLength="297.03" waitingTime="1.00" waitingCount="1" stopTime="0.00" timeLoss="12.75" rerouteNo="0" devices="tripinfo_bg_E_W.2" vType="car_commuter" speedFactor="1.11" vaporized=""/>
    <tripinfo id="bg_E_W.3" depart="77.00" departLane="749662140#0_0" departPos="5.10" departSpeed="0.00" departDelay="0.00" arrival="97.00" arrivalLane="978400303#0_0" arrivalPos="149.14" arrivalSpeed="19.57" duration="20.00" routeLength="297.03" waitingTime="0.00" waitingCount="0" stopTime="0.00" timeLoss="4.81" rerouteNo="0" devices="tripinfo_bg_E_W.3" vType="car_commuter" speedFactor="0.92" vaporized=""/>
    <tripinfo id="commuter_N_S.5" depart="36.00" departLane="754598165#2_0" departPos="5.10" departSpeed="0.00" departDelay="1.00" arrival="102.00" arrivalLane="757092064#1_1" arrivalPos="81.46" arrivalSpeed="18.93" duration="66.00" routeLength="213.54" waitingTime="40.00" waitingCount="2" stopTime="0.00" timeLoss="55.17" rerouteNo="0" devices="tripinfo_commuter_N_S.5" vType="car_commuter" speedFactor="1.05" vaporized=""/>
    <tripinfo id="commuter_N_S.4" depart="33.00" departLane="754598165#2_0" departPos="5.10" departSpeed="0.00" departDelay="0.00" arrival="103.00" arrivalLane="757092064#1_0" arrivalPos="81.46" arrivalSpeed="19.76" duration="70.00" routeLength="213.54" waitingTime="42.00" waitingCount="2" stopTime="0.00" timeLoss="58.84" rerouteNo="0" devices="tripinfo_commuter_N_S.4" vType="car_commuter" speedFactor="0.94" vaporized=""/>
    <tripinfo id="commuter_N_W.1" depart="45.00" departLane="754598165#2_0" departPos="5.10" departSpeed="0.00" departDelay="2.00" arrival="105.00" arrivalLane="978400303#0_3" arrivalPos="149.14" arrivalSpeed="19.94" duration="60.00" routeLength="273.05" waitingTime="31.00" waitingCount="2" stopTime="0.00" timeLoss="45.72" rerouteNo="0" devices="tripinfo_commuter_N_W.1" vType="car_commuter" speedFactor="1.24" vaporized=""/>
    <tripinfo id="bg_E_W.4" depart="80.00" departLane="749662140#0_0" departPos="5.10" departSpeed="0.00" departDelay="2.00" arrival="119.00" arrivalLane="978400303#0_0" arrivalPos="149.14" arrivalSpeed="19.12" duration="39.00" routeLength="297.03" waitingTime="11.00" waitingCount="1" stopTime="0.00" timeLoss="23.39" rerouteNo="0" devices="tripinfo_bg_E_W.4" vType="car_commuter" speedFactor="1.14" vaporized=""/>
    <tripinfo id="bg_E_N.0" depart="106.00" departLane="749662140#0_0" departPos="5.10" departSpeed="0.00" departDelay="0.00" arrival="124.00" arrivalLane="749988360#0_2" arrivalPos="93.21" arrivalSpeed="19.59" duration="18.00" routeLength="241.59" waitingTime="0.00" waitingCount="0" stopTime="0.00" timeLoss="5.05" rerouteNo="0" devices="tripinfo_bg_E_N.0" vType="car_commuter" speedFactor="1.17" vaporized=""/>
    <tripinfo id="bg_E_N.1" depart="121.00" departLane="749662140#0_0" departPos="5.10" departSpeed="0.00" departDelay="0.00" arrival="310.00" arrivalLane="749988360#0_2" arrivalPos="93.21" arrivalSpeed="18.87" duration="189.00" routeLength="241.59" waitingTime="164.00" waitingCount="1" stopTime="0.00" timeLoss="176.18" rerouteNo="0" devices="tripinfo_bg_E_N.1" vType="car_commuter" speedFactor="1.03" vaporized=""/>
    <tripinfo id="bg_E_S.1" depart="141.00" departLane="749662140#0_0" departPos="5.10" departSpeed="0.00" departDelay="2.00" arrival="310.00" arrivalLane="757092064#1_0" arrivalPos="81.46" arrivalSpeed="18.12" duration="169.00" routeLength="177.43" waitingTime="146.00" waitingCount="1" stopTime="0.00" timeLoss="159.01" rerouteNo="0" devices="tripinfo_bg_E_S.1" vType="car_commuter" speedFactor="0.99" vaporized=""/>
    <tripinfo id="bg_E_N.2" depart="149.00" departLane="749662140#0_0" departPos="5.10" departSpeed="0.00" departDelay="0.00" arrival="312.00" arrivalLane="749988360#0_2" arrivalPos="93.21" arrivalSpeed="19.57" duration="163.00" routeLength="241.59" waitingTime="137.00" waitingCount="1" stopTime="0.00" timeLoss="150.29" rerouteNo="0" devices="tripinfo_bg_E_N.2" vType="car_commuter" speedFactor="1.13" vaporized=""/>
    <tripinfo id="bg_E_W.7" depart="150.00" departLane="749662140#0_0" departPos="5.10" departSpeed="0.00" departDelay="0.00" arrival="312.00" arrivalLane="978400303#0_2" arrivalPos="149.14" arrivalSpeed="18.85" duration="162.00" routeLength="297.03" waitingTime="133.00" waitingCount="1" stopTime="0.00" timeLoss="146.89" rerouteNo="0" devices="tripinfo_bg_E_W.7" vType="car_commuter" speedFactor="0.94" vaporized=""/>
    <tripinfo id="bg_E_W.6" depart="138.00" departLane="749662140#0_0" departPos="5.10" departSpeed="0.00" departDelay="0.00" arrival="313.00" arrivalLane="978400303#0_1" arrivalPos="149.14" arrivalSpeed="19.22" duration="175.00" routeLength="297.03" waitingTime="147.00" waitingCount="1" stopTime="0.00" timeLoss="159.45" rerouteNo="0" devices="tripinfo_bg_E_W.6" vType="car_commuter" speedFactor="1.12" vaporized=""/>
    <tripinfo id="bg_E_W.5" depart="116.00" departLane="749662140#0_0" departPos="5.10" departSpeed="0.00" departDelay="0.00" arrival="314.00" arrivalLane="978400303#0_0" arrivalPos="149.14" arrivalSpeed="19.32" duration="198.00" routeLength="297.03" waitingTime="168.00" waitingCount="1" stopTime="0.00" timeLoss="182.29" rerouteNo="0" devices="tripinfo_bg_E_W.5" vType="car_commuter" speedFactor="0.99" vaporized=""/>
    <tripinfo id="bg_E_W.9" depart="214.00" departLane="749662140#0_0" departPos="5.10" departSpeed="0.00" departDelay="0.00" arrival="314.00" arrivalLane="978400303#0_2" arrivalPos="149.14" arrivalSpeed="19.72" duration="100.00" routeLength="297.03" waitingTime="74.00" waitingCount="1" stopTime="0.00" timeLoss="85.01" rerouteNo="0" devices="tripinfo_bg_E_W.9" vType="car_commuter" speedFactor="0.96" vaporized=""/>
    <tripinfo id="bg_E_W.8" depart="179.00" departLane="749662140#0_0" departPos="5.10" departSpeed="0.00" departDelay="0.00" arrival="315.00" arrivalLane="978400303#0_1" arrivalPos="149.14" arrivalSpeed="19.61" duration="136.00" routeLength="297.03" waitingTime="108.00" waitingCount="1" stopTime="0.00" timeLoss="120.44" rerouteNo="0" devices="tripinfo_bg_E_W.8" vType="car_commuter" speedFactor="1.17" vaporized=""/>
    <tripinfo id="commuter_N_S.6" depart="47.00" departLane="754598165#2_0" departPos="5.10" departSpeed="0.00" departDelay="0.00" arrival="387.00" arrivalLane="757092064#1_1" arrivalPos="81.46" arrivalSpeed="19.65" duration="340.00" routeLength="213.54" waitingTime="309.00" waitingCount="3" stopTime="0.00" timeLoss="329.20" rerouteNo="0" devices="tripinfo_commuter_N_S.6" vType="car_commuter" speedFactor="1.03" vaporized=""/>
    <tripinfo id="commuter_N_S.7" depart="68.00" departLane="754598165#2_0" departPos="5.10" departSpeed="0.00" departDelay="0.00" arrival="389.00" arrivalLane="757092064#1_1" arrivalPos="81.46" arrivalSpeed="19.37" duration="321.00" routeLength="213.54" waitingTime="297.00" waitingCount="2" stopTime="0.00" timeLoss="309.90" rerouteNo="0" devices="tripinfo_commuter_N_S.7" vType="car_commuter" speedFactor="0.95" vaporized=""/>
    <tripinfo id="commuter_N_S.8" depart="72.00" departLane="754598165#2_0" departPos="5.10" departSpeed="0.00" departDelay="0.00" arrival="389.00" arrivalLane="757092064#1_2" arrivalPos="81.46" arrivalSpeed="19.72" duration="317.00" routeLength="213.54" waitingTime="290.00" waitingCount="2" stopTime="0.00" timeLoss="306.04" rerouteNo="0" devices="tripinfo_commuter_N_S.8" vType="car_commuter" speedFactor="1.00" vaporized=""/>
    <tripinfo id="commuter_N_W.2" depart="54.00" departLane="754598165#2_0" departPos="5.10" departSpeed="0.00" departDelay="3.00" arrival="391.00" arrivalLane="978400303#0_3" arrivalPos="149.14" arrivalSpeed="19.56" duration="337.00" routeLength="273.05" waitingTime="302.00" waitingCount="3" stopTime="0.00" timeLoss="321.75" rerouteNo="0" devices="tripinfo_commuter_N_W.2" vType="car_commuter" speedFactor="1.25" vaporized=""/>
    <tripinfo id="commuter_N_S.9" depart="75.00" departLane="754598165#2_0" departPos="5.10" departSpeed="0.00" departDelay="0.00" arrival="391.00" arrivalLane="757092064#1_1" arrivalPos="81.46" arrivalSpeed="19.27" duration="316.00" routeLength="213.54" waitingTime="290.00" waitingCount="2" stopTime="0.00" timeLoss="304.49" rerouteNo="0" devices="tripinfo_commuter_N_S.9" vType="car_commuter" speedFactor="1.28" vaporized=""/>
    <tripinfo id="commuter_N_S.10" depart="78.00" departLane="754598165#2_0" departPos="5.10" departSpeed="0.00" departDelay="1.00" arrival="391.00" arrivalLane="757092064#1_2" arrivalPos="81.46" arrivalSpeed="19.93" duration="313.00" routeLength="213.54" waitingTime="286.00" waitingCount="2" stopTime="0.00" timeLoss="302.20" rerouteNo="0" devices="tripinfo_commuter_N_S.10" vType="car_commuter" speedFactor="0.99" vaporized=""/>
    <tripinfo id="commuter_N_S.11" depart="87.00" departLane="754598165#2_0" departPos="5.10" departSpeed="0.00" departDelay="0.00" arrival="392.00" arrivalLane="757092064#1_1" arrivalPos="81.46" arrivalSpeed="19.76" duration="305.00" routeLength="213.54" waitingTime="279.00" waitingCount="1" stopTime="0.00" timeLoss="294.13" rerouteNo="0" devices="tripinfo_commuter_N_S.11" vType="car_commuter" speedFactor="1.08" vaporized=""/>
    <tripinfo id="commuter_N_E.1" depart="39.00" departLane="754598165#2_0" departPos="5.10" departSpeed="0.00" departDelay="3.00" arrival="394.00" arrivalLane="563175146#1_0" arrivalPos="228.90" arrivalSpeed="19.18" duration="355.00" routeLength="331.30" waitingTime="314.00" waitingCount="3" stopTime="0.00" timeLoss="336.95" rerouteNo="0" devices="tripinfo_commuter_N_E.1" vType="car_commuter" speedFactor="0.87" vaporized=""/>
    <tripinfo id="commuter_N_S.12" depart="96.00" departLane="754598165#2_0" departPos="5.10" departSpeed="0.00" departDelay="0.00" arrival="394.00" arrivalLane="757092064#1_1" arrivalPos="81.46" arrivalSpeed="19.03" duration="298.00" routeLength="213.54" waitingTime="275.00" waitingCount="1" stopTime="0.00" timeLoss="286.72" rerouteNo="0" devices="tripinfo_commuter_N_S.12" vType="car_commuter" speedFactor="1.09" vaporized=""/>
    <tripinfo id="commuter_N_E.2" depart="42.00" departLane="754598165#2_0" departPos="5.10" departSpeed="0.00" departDelay="3.00" arrival="396.00" arrivalLane="563175146#1_0" arrivalPos="228.90" arrivalSpeed="18.98" duration="354.00" routeLength="331.30" waitingTime="309.00" waitingCount="3" stopTime="0.00" timeLoss="335.82" rerouteNo="0" devices="tripinfo_commuter_N_E.2" vType="car_commuter" speedFactor="0.90" vaporized=""/>
    <tripinfo id="commuter_N_E.3" depart="48.00" departLane="754598165#2_0" departPos="5.10" departSpeed="0.00" departDelay="0.00" arrival="397.00" arrivalLane="563175146#1_0" arrivalPos="228.90" arrivalSpeed="18.99" duration="349.00" routeLength="331.30" waitingTime="306.00" waitingCount="3" stopTime="0.00" timeLoss="331.86" rerouteNo="0" devices="tripinfo_commuter_N_E.3" vType="car_commuter" speedFactor="1.11" vaporized=""/>
    <tripinfo id="commuter_N_W.3" depart="81.00" departLane="754598165#2_0" departPos="5.10" departSpeed="0.00" departDelay="3.00" arrival="397.00" arrivalLane="978400303#0_3" arrivalPos="149.14" arrivalSpeed="19.78" duration="316.00" routeLength="273.05" waitingTime="282.00" waitingCount="2" stopTime="0.00" timeLoss="300.34" rerouteNo="0" devices="tripinfo_commuter_N_W.3" vType="car_commuter" speedFactor="1.12" vaporized=""/>
    <tripinfo id="commuter_N_W.4" depart="86.00" departLane="754598165#2_0" departPos="5.10" departSpeed="0.00" departDelay="0.00" arrival="399.00" arrivalLane="978400303#0_3" arrivalPos="149.14" arrivalSpeed="19.26" duration="313.00" routeLength="273.05" waitingTime="279.00" waitingCount="2" stopTime="0.00" timeLoss="297.51" rerouteNo="0" devices="tripinfo_commuter_N_W.4" vType="car_commuter" speedFactor="0.98" vaporized=""/>
    <tripinfo id="commuter_N_E.4" depart="51.00" departLane="754598165#2_0" departPos="5.10" departSpeed="0.00" departDelay="1.00" arrival="400.00" arrivalLane="563175146#1_0" arrivalPos="228.90" arrivalSpeed="19.93" duration="349.00" routeLength="331.30" waitingTime="305.00" waitingCount="3" stopTime="0.00" timeLoss="331.38" rerouteNo="0" devices="tripinfo_commuter_N_E.4" vType="car_commuter" speedFactor="1.16" vaporized=""/>
    <tripinfo id="bg_E_S.2" depart="157.00" departLane="749662140#0_0" departPos="5.10" departSpeed="0.00" departDelay="0.00" arrival="402.00" arrivalLane="757092064#1_0" arrivalPos="81.46" arrivalSpeed="19.19" duration="245.00" routeLength="177.43" waitingTime="217.00" waitingCount="2" stopTime="0.00" timeLoss="234.10" rerouteNo="0" devices="tripinfo_bg_E_S.2" vType="car_commuter" speedFactor="0.91" vaporized=""/>
    <tripinfo id="bg_E_N.3" depart="210.00" departLane="749662140#0_0" departPos="5.10" departSpeed="0.00" departDelay="0.00" arrival="404.00" arrivalLane="749988360#0_2" arrivalPos="93.21" arrivalSpeed="19.08" duration="194.00" routeLength="241.59" waitingTime="164.00" waitingCount="2" stopTime="0.00" timeLoss="180.96" rerouteNo="0" devices="tripinfo_bg_E_N.3" vType="car_commuter" speedFactor="0.91" vaporized=""/>
    <tripinfo id="bg_E_N.4" depart="243.00" departLane="749662140#0_0" departPos="5.10" departSpeed="0.00" departDelay="3.00" arrival="406.00" arrivalLane="749988360#0_2" arrivalPos="93.21" arrivalSpeed="19.86" duration="163.00" routeLength="241.59" waitingTime="132.00" waitingCount="2" stopTime="0.00" timeLoss="149.73" rerouteNo="0" devices="tripinfo_bg_E_N.4" vType="car_commuter" speedFactor="0.98" vaporized=""/>
    <tripinfo id="bg_E_W.10" depart="240.00" departLane="749662140#0_0" departPos="5.10" departSpeed="0.00" departDelay="0.00" arrival="407.00" arrivalLane="978400303#0_0" arrivalPos="149.14" arrivalSpeed="18.81" duration="167.00" routeLength="297.03" waitingTime="135.00" waitingCount="2" stopTime="0.00" timeLoss="152.04" rerouteNo="0" devices="tripinfo_bg_E_W.10" vType="car_commuter" speedFactor="1.16" vaporized=""/>
    <tripinfo id="bg_E_W.12" depart="255.00" departLane="749662140#0_0" departPos="5.10" departSpeed="0.00" departDelay="1.00" arrival="407.00" arrivalLane="978400303#0_1" arrivalPos="149.14" arrivalSpeed="18.97" duration="152.00" routeLength="297.03" waitingTime="118.00" waitingCount="2" stopTime="0.00" timeLoss="136.57" rerouteNo="0" devices="tripinfo_bg_E_W.12" vType="car_commuter" speedFactor="1.04" vaporized=""/>
    <tripinfo id="bg_E_S.3" depart="262.00" departLane="749662140#0_0" departPos="5.10" departSpeed="0.00" departDelay="0.00" arrival="407.00" arrivalLane="757092064#1_0" arrivalPos="81.46" arrivalSpeed="16.45" duration="145.00" routeLength="177.43" waitingTime="113.00" waitingCount="2" stopTime="0.00" timeLoss="134.69" rerouteNo="0" devices="tripinfo_bg_E_S.3" vType="car_commuter" speedFactor="1.03" vaporized=""/>
    <tripinfo id="bg_E_W.14" depart="282.00" departLane="749662140#0_0" departPos="5.10" departSpeed="0.00" departDelay="0.00" arrival="408.00" arrivalLane="978400303#0_2" arrivalPos="149.14" arrivalSpeed="19.54" duration="126.00" routeLength="297.03" waitingTime="93.00" waitingCount="2" stopTime="0.00" timeLoss="111.15" rerouteNo="0" devices="tripinfo_bg_E_W.14" vType="car_commuter" speedFactor="0.99" vaporized=""/>
    <tripinfo id="bg_E_N.5" depart="359.00" departLane="749662140#0_0" departPos="5.10" departSpeed="0.00" departDelay="0.00" arrival="408.00" arrivalLane="749988360#0_2" arrivalPos="93.21" arrivalSpeed="19.93" duration="49.00" routeLength="241.59" waitingTime="22.00" waitingCount="1" stopTime="0.00" timeLoss="36.16" rerouteNo="0" devices="tripinfo_bg_E_N.5" vType="car_commuter" speedFactor="0.96" vaporized=""/>
    <tripinfo id="bg_E_W.11" depart="252.00" departLane="749662140#0_0" departPos="5.10" departSpeed="0.00" departDelay="0.00" arrival="409.00" arrivalLane="978400303#0_0" arrivalPos="149.14" arrivalSpeed="18.83" duration="157.00" routeLength="297.03" waitingTime="123.00" waitingCount="2" stopTime="0.00" timeLoss="141.68" rerouteNo="0" devices="tripinfo_bg_E_W.11" vType="car_commuter" speedFactor="1.01" vaporized=""/>
    <tripinfo id="bg_E_W.13" depart="265.00" departLane="749662140#0_0" departPos="5.10" departSpeed="0.00" departDelay="2.00" arrival="409.00" arrivalLane="978400303#0_1" arrivalPos="149.14" arrivalSpeed="19.42" duration="144.00" routeLength="297.03" waitingTime="108.00" waitingCount="2" stopTime="0.00" timeLoss="128.74" rerouteNo="0" devices="tripinfo_bg_E_W.13" vType="car_commuter" speedFactor="1.00" vaporized=""/>
    <tripinfo id="bg_E_S.4" depart="324.00" departLane="749662140#0_0" departPos="5.10" departSpeed="0.00" departDelay="0.00" arrival="409.00" arrivalLane="757092064#1_0" arrivalPos="81.46" arrivalSpeed="18.63" duration="85.00" routeLength="177.43" waitingTime="61.00" waitingCount="1" stopTime="0.00" timeLoss="74.37" rerouteNo="0" devices="tripinfo_bg_E_S.4" vType="car_commuter" speedFactor="1.09" vaporized=""/>
    <tripinfo id="bg_E_W.16" depart="381.00" departLane="749662140#0_0" departPos="5.10" departSpeed="0.00" departDelay="0.00" arrival="410.00" arrivalLane="978400303#0_2" arrivalPos="149.14" arrivalSpeed="19.63" duration="29.00" routeLength="297.03" waitingTime="1.00" waitingCount="1" stopTime="0.00" timeLoss="13.92" rerouteNo="0" devices="tripinfo_bg_E_W.16" vType="car_commuter" speedFactor="1.03" vaporized=""/>
    <tripinfo id="bg_E_W.15" depart="298.00" departLane="749662140#0_0" departPos="5.10" departSpeed="0.00" departDelay="0.00" arrival="411.00" arrivalLane="978400303#0_1" arrivalPos="149.14" arrivalSpeed="19.30" duration="113.00" routeLength="297.03" waitingTime="83.00" waitingCount="1" stopTime="0.00" timeLoss="97.35" rerouteNo="0" devices="tripinfo_bg_E_W.15" vType="car_commuter" speedFactor="1.00" vaporized=""/>
    <tripinfo id="bg_E_S.5" depart="328.00" departLane="749662140#0_0" departPos="5.10" departSpeed="0.00" departDelay="0.00" arrival="411.00" arrivalLane="757092064#1_0" arrivalPos="81.46" arrivalSpeed="18.10" duration="83.00" routeLength="177.43" waitingTime="57.00" waitingCount="1" stopTime="0.00" timeLoss="72.82" rerouteNo="0" devices="tripinfo_bg_E_S.5" vType="car_commuter" speedFactor="1.08" vaporized=""/>
    <tripinfo id="bg_E_W.17" depart="397.00" departLane="749662140#0_0" departPos="5.10" departSpeed="0.00" departDelay="0.00" arrival="417.00" arrivalLane="978400303#0_0" arrivalPos="149.14" arrivalSpeed="18.96" duration="20.00" routeLength="297.03" waitingTime="0.00" waitingCount="0" stopTime="0.00" timeLoss="5.15" rerouteNo="0" devices="tripinfo_bg_E_W.17" vType="car_commuter" speedFactor="1.23" vaporized=""/>
    <tripinfo id="commuter_N_S.13" depart="100.00" departLane="754598165#2_0" departPos="5.10" departSpeed="0.00" departDelay="0.00" arrival="715.00" arrivalLane="757092064#1_1" arrivalPos="81.46" arrivalSpeed="19.93" duration="615.00" routeLength="213.54" waitingTime="585.00" waitingCount="2" stopTime="0.00" timeLoss="603.90" rerouteNo="0" devices="tripinfo_commuter_N_S.13" vType="car_commuter" speedFactor="0.89" vaporized=""/>
    <tripinfo id="commuter_N_S.15" depart="110.00" departLane="754598165#2_0" departPos="5.10" departSpeed="0.00" departDelay="0.00" arrival="717.00" arrivalLane="757092064#1_1" arrivalPos="81.46" arrivalSpeed="18.85" duration="607.00" routeLength="213.54" waitingTime="575.00" waitingCount="2" stopTime="0.00" timeLoss="595.81" rerouteNo="0" devices="tripinfo_commuter_N_S.15" vType="car_commuter" speedFactor="0.89" vaporized=""/>
    <tripinfo id="commuter_N_S.17" depart="116.00" departLane="754598165#2_0" departPos="5.10" departSpeed="0.00" departDelay="0.00" arrival="717.00" arrivalLane="757092064#1_2" arrivalPos="81.46" arrivalSpeed="19.44" duration="601.00" routeLength="213.54" waitingTime="570.00" waitingCount="2" stopTime="0.00" timeLoss="589.75" rerouteNo="0" devices="tripinfo_commuter_N_S.17" vType="car_commuter" speedFactor="0.99" vaporized=""/>
    <tripinfo id="commuter_N_W.5" depart="91.00" departLane="754598165#2_0" departPos="5.10" departSpeed="0.00" departDelay="0.00" arrival="718.00" arrivalLane="978400303#0_3" arrivalPos="149.14" arrivalSpeed="18.73" duration="627.00" routeLength="273.05" waitingTime="589.00" waitingCount="2" stopTime="0.00" timeLoss="611.74" rerouteNo="0" devices="tripinfo_commuter_N_W.5" vType="car_commuter" speedFactor="1.00" vaporized=""/>
    <tripinfo id="commuter_N_S.14" depart="103.00" departLane="754598165#2_0" departPos="5.10" departSpeed="0.00" departDelay="2.00" arrival="718.00" arrivalLane="757092064#1_0" arrivalPos="81.46" arrivalSpeed="19.58" duration="615.00" routeLength="213.54" waitingTime="584.00" waitingCount="2" stopTime="0.00" timeLoss="603.89" rerouteNo="0" devices="tripinfo_commuter_N_S.14" vType="car_commuter" speedFactor="1.09" vaporized=""/>
    <tripinfo id="commuter_N_S.18" depart="121.00" departLane="754598165#2_0" departPos="5.10" departSpeed="0.00" departDelay="0.00" arrival="719.00" arrivalLane="757092064#1_1" arrivalPos="81.46" arrivalSpeed="19.04" duration="598.00" routeLength="213.54" waitingTime="566.00" waitingCount="2" stopTime="0.00" timeLoss="586.39" rerouteNo="0" devices="tripinfo_commuter_N_S.18" vType="car_commuter" speedFactor="0.89" vaporized=""/>
    <tripinfo id="commuter_N_S.19" depart="123.00" departLane="754598165#2_0" departPos="5.10" departSpeed="0.00" departDelay="0.00" arrival="719.00" arrivalLane="757092064#1_2" arrivalPos="81.46" arrivalSpeed="19.68" duration="596.00" routeLength="213.54" waitingTime="565.00" waitingCount="2" stopTime="0.00" timeLoss="584.50" rerouteNo="0" devices="tripinfo_commuter_N_S.19" vType="car_commuter" speedFactor="1.14" vaporized=""/>
    <tripinfo id="commuter_N_S.16" depart="113.00" departLane="754598165#2_0" departPos="5.10" departSpeed="0.00" departDelay="0.00" arrival="720.00" arrivalLane="757092064#1_0" arrivalPos="81.46" arrivalSpeed="18.76" duration="607.00" routeLength="213.54" waitingTime="576.00" waitingCount="2" stopTime="0.00" timeLoss="596.04" rerouteNo="0" devices="tripinfo_commuter_N_S.16" vType="car_commuter" speedFactor="0.99" vaporized=""/>
    <tripinfo id="commuter_N_S.20" depart="387.00" departLane="754598165#2_0" departPos="5.10" departSpeed="0.00" departDelay="263.00" arrival="720.00" arrivalLane="757092064#1_1" arrivalPos="81.46" arrivalSpeed="19.83" duration="333.00" routeLength="213.54" waitingTime="308.00" waitingCount="1" stopTime="0.00" timeLoss="321.94" rerouteNo="0" devices="tripinfo_commuter_N_S.20" vType="car_commuter" speedFactor="0.90" vaporized=""/>
    <tripinfo id="commuter_N_E.5" depart="63.00" departLane="754598165#2_0" departPos="5.10" departSpeed="0.00" departDelay="0.00" arrival="721.00" arrivalLane="563175146#1_0" arrivalPos="228.90" arrivalSpeed="19.39" duration="658.00" routeLength="331.30" waitingTime="606.00" waitingCount="4" stopTime="0.00" timeLoss="640.17" rerouteNo="0" devices="tripinfo_commuter_N_E.5" vType="car_commuter" speedFactor="1.02" vaporized=""/>
    <tripinfo id="commuter_N_S.21" depart="393.00" departLane="754598165#2_0" departPos="5.10" departSpeed="0.00" departDelay="264.00" arrival="721.00" arrivalLane="757092064#1_2" arrivalPos="81.46" arrivalSpeed="19.84" duration="328.00" routeLength="213.54" waitingTime="302.00" waitingCount="1" stopTime="0.00" timeLoss="316.43" rerouteNo="0" devices="tripinfo_commuter_N_S.21" vType="car_commuter" speedFactor="1.06" vaporized=""/>
    <tripinfo id="commuter_N_E.6" depart="88.00" departLane="754598165#2_0" departPos="5.10" departSpeed="0.00" departDelay="0.00" arrival="722.00" arrivalLane="563175146#1_0" arrivalPos="228.90" arrivalSpeed="19.21" duration="634.00" routeLength="331.30" waitingTime="588.00" waitingCount="3" stopTime="0.00" timeLoss="616.81" rerouteNo="0" devices="tripinfo_commuter_N_E.6" vType="car_commuter" speedFactor="1.12" vaporized=""/>
    <tripinfo id="commuter_N_S.22" depart="396.00" departLane="754598165#2_0" departPos="5.10" departSpeed="0.00" departDelay="266.00" arrival="722.00" arrivalLane="757092064#1_1" arrivalPos="81.46" arrivalSpeed="18.89" duration="326.00" routeLength="213.54" waitingTime="302.00" waitingCount="1" stopTime="0.00" timeLoss="314.78" rerouteNo="0" devices="tripinfo_commuter_N_S.22" vType="car_commuter" speedFactor="0.86" vaporized=""/>
    <tripinfo id="commuter_N_S.23" depart="402.00" departLane="754598165#2_0" departPos="5.10" departSpeed="0.00" departDelay="269.00" arrival="723.00" arrivalLane="757092064#1_2" arrivalPos="81.46" arrivalSpeed="19.54" duration="321.00" routeLength="213.54" waitingTime="295.00" waitingCount="1" stopTime="0.00" timeLoss="309.46" rerouteNo="0" devices="tripinfo_commuter_N_S.23" vType="car_commuter" speedFactor="1.15" vaporized=""/>