<?xml version="1.0" encoding="UTF-8"?>

<!-- generated on 2025-06-03 02:19:05 by Eclipse SUMO sumo Version 1.22.0
<sumoConfiguration xmlns:xsi="http://www.w3.org/2001/XMLSchema-instance" xsi:noNamespaceSchemaLocation="http://sumo.dlr.de/xsd/sumoConfiguration.xsd">

    <input>
        <net-file value="osm.net.xml"/>
        <route-files value="route.rou.xml"/>
        <additional-files value="osm.poly.xml.gz"/>
    </input>

    <output>
        <summary-output value="summary_eval_final_ep3.xml"/>
        <tripinfo-output value="tripinfo_eval_final_ep3.xml"/>
    </output>

    <time>
        <begin value="0"/>
        <end value="3600"/>
    </time>

    <processing>
        <time-to-teleport value="-1"/>
        <waiting-time-memory value="1000"/>
    </processing>

    <report>
        <verbose value="true"/>
        <duration-log.statistics value="true"/>
        <no-step-log value="true"/>
    </report>

    <traci_server>
        <remote-port value="52028"/>
    </traci_server>

    <random_number>
        <seed value="15291"/>
    </random_number>

</sumoConfiguration>
-->

<tripinfos xmlns:xsi="http://www.w3.org/2001/XMLSchema-instance" xsi:noNamespaceSchemaLocation="http://sumo.dlr.de/xsd/tripinfo_file.xsd">
    <tripinfo id="bg_E_N.0" depart="6.00" departLane="749662140#0_0" departPos="5.10" departSpeed="0.00" departDelay="0.00" arrival="25.00" arrivalLane="749988360#0_2" arrivalPos="93.21" arrivalSpeed="19.33" duration="19.00" routeLength="241.59" waitingTime="0.00" waitingCount="0" stopTime="0.00" timeLoss="5.06" rerouteNo="0" devices="tripinfo_bg_E_N.0" vType="car_commuter" speedFactor="0.84" vaporized=""/>
    <tripinfo id="bg_E_W.0" depart="8.00" departLane="749662140#0_0" departPos="5.10" departSpeed="0.00" departDelay="0.00" arrival="28.00" arrivalLane="978400303#0_0" arrivalPos="149.14" arrivalSpeed="19.29" duration="20.00" routeLength="297.03" waitingTime="0.00" waitingCount="0" stopTime="0.00" timeLoss="4.94" rerouteNo="0" devices="tripinfo_bg_E_W.0" vType="car_commuter" speedFactor="0.97" vaporized=""/>
    <tripinfo id="commuter_N_S.0" depart="5.00" departLane="754598165#2_0" departPos="5.10" departSpeed="0.00" departDelay="0.00" arrival="128.00" arrivalLane="757092064#1_0" arrivalPos="81.46" arrivalSpeed="19.56" duration="123.00" routeLength="213.54" waitingTime="100.00" waitingCount="1" stopTime="0.00" timeLoss="111.86" rerouteNo="0" devices="tripinfo_commuter_N_S.0" vType="car_commuter" speedFactor="0.97" vaporized=""/>
    <tripinfo id="commuter_N_S.1" depart="8.00" departLane="754598165#2_0" departPos="5.10" departSpeed="0.00" departDelay="1.00" arrival="129.00" arrivalLane="757092064#1_0" arrivalPos="81.46" arrivalSpeed="19.39" duration="121.00" routeLength="213.54" waitingTime="96.00" waitingCount="1" stopTime="0.00" timeLoss="109.81" rerouteNo="0" devices="tripinfo_commuter_N_S.1" vType="car_commuter" speedFactor="1.03" vaporized=""/>
    <tripinfo id="commuter_N_S.3" depart="14.00" departLane="754598165#2_0" departPos="5.10" departSpeed="0.00" departDelay="3.00" arrival="129.00" arrivalLane="757092064#1_2" arrivalPos="81.46" arrivalSpeed="19.01" duration="115.00" routeLength="213.54" waitingTime="90.00" waitingCount="1" stopTime="0.00" timeLoss="103.52" rerouteNo="0" devices="tripinfo_commuter_N_S.3" vType="car_commuter" speedFactor="1.08" vaporized=""/>
    <tripinfo id="commuter_N_S.2" depart="11.00" departLane="754598165#2_0" departPos="5.10" departSpeed="0.00" departDelay="3.00" arrival="130.00" arrivalLane="757092064#1_0" arrivalPos="81.46" arrivalSpeed="19.04" duration="119.00" routeLength="213.54" waitingTime="95.00" waitingCount="1" stopTime="0.00" timeLoss="108.01" rerouteNo="0" devices="tripinfo_commuter_N_S.2" vType="car_commuter" speedFactor="0.84" vaporized=""/>
    <tripinfo id="commuter_N_S.4" depart="16.00" departLane="754598165#2_0" departPos="5.10" departSpeed="0.00" departDelay="3.00" arrival="130.00" arrivalLane="757092064#1_2" arrivalPos="81.46" arrivalSpeed="19.99" duration="114.00" routeLength="213.54" waitingTime="90.00" waitingCount="1" stopTime="0.00" timeLoss="103.04" rerouteNo="0" devices="tripinfo_commuter_N_S.4" vType="car_commuter" speedFactor="1.02" vaporized=""/>
    <tripinfo id="commuter_N_S.5" depart="21.00" departLane="754598165#2_0" departPos="5.10" departSpeed="0.00" departDelay="7.00" arrival="131.00" arrivalLane="757092064#1_1" arrivalPos="81.46" arrivalSpeed="19.76" duration="110.00" routeLength="213.54" waitingTime="84.00" waitingCount="1" stopTime="0.00" timeLoss="98.57" rerouteNo="0" devices="tripinfo_commuter_N_S.5" vType="car_commuter" speedFactor="0.84" vaporized=""/>
    <tripinfo id="commuter_N_S.6" depart="24.00" departLane="754598165#2_0" departPos="5.10" departSpeed="0.00" departDelay="8.00" arrival="132.00" arrivalLane="757092064#1_0" arrivalPos="81.46" arrivalSpeed="18.80" duration="108.00" routeLength="213.54" waitingTime="85.00" waitingCount="1" stopTime="0.00" timeLoss="96.58" rerouteNo="0" devices="tripinfo_commuter_N_S.6" vType="car_commuter" speedFactor="0.91" vaporized=""/>
    <tripinfo id="commuter_N_S.7" depart="30.00" departLane="754598165#2_0" departPos="5.10" departSpeed="0.00" departDelay="1.00" arrival="132.00" arrivalLane="757092064#1_1" arrivalPos="81.46" arrivalSpeed="18.79" duration="102.00" routeLength="213.54" waitingTime="79.00" waitingCount="1" stopTime="0.00" timeLoss="91.17" rerouteNo="0" devices="tripinfo_commuter_N_S.7" vType="car_commuter" speedFactor="1.02" vaporized=""/>
    <tripinfo id="commuter_N_S.8" depart="44.00" departLane="754598165#2_0" departPos="5.10" departSpeed="0.00" departDelay="0.00" arrival="134.00" arrivalLane="757092064#1_1" arrivalPos="81.46" arrivalSpeed="19.91" duration="90.00" routeLength="213.54" waitingTime="66.00" waitingCount="1" stopTime="0.00" timeLoss="78.65" rerouteNo="0" devices="tripinfo_commuter_N_S.8" vType="car_commuter" speedFactor="0.87" vaporized=""/>
    <tripinfo id="commuter_N_S.11" depart="55.00" departLane="754598165#2_0" departPos="5.10" departSpeed="0.00" departDelay="0.00" arrival="135.00" arrivalLane="757092064#1_2" arrivalPos="81.46" arrivalSpeed="18.98" duration="80.00" routeLength="213.54" waitingTime="56.00" waitingCount="1" stopTime="0.00" timeLoss="69.24" rerouteNo="0" devices="tripinfo_commuter_N_S.11" vType="car_commuter" speedFactor="1.02" vaporized=""/>
    <tripinfo id="commuter_N_W.0" depart="20.00" departLane="754598165#2_0" departPos="5.10" departSpeed="0.00" departDelay="7.00" arrival="136.00" arrivalLane="978400303#0_3" arrivalPos="149.14" arrivalSpeed="18.72" duration="116.00" routeLength="273.05" waitingTime="89.00" waitingCount="1" stopTime="0.00" timeLoss="100.15" rerouteNo="0" devices="tripinfo_commuter_N_W.0" vType="car_commuter" speedFactor="1.01" vaporized=""/>
    <tripinfo id="commuter_N_S.9" depart="45.00" departLane="754598165#2_0" departPos="5.10" departSpeed="0.00" departDelay="0.00" arrival="136.00" arrivalLane="757092064#1_1" arrivalPos="81.46" arrivalSpeed="18.82" duration="91.00" routeLength="213.54" waitingTime="66.00" waitingCount="1" stopTime="0.00" timeLoss="79.49" rerouteNo="0" devices="tripinfo_commuter_N_S.9" vType="car_commuter" speedFactor="1.12" vaporized=""/>
    <tripinfo id="commuter_N_W.1" depart="33.00" departLane="754598165#2_0" departPos="5.10" departSpeed="0.00" departDelay="3.00" arrival="137.00" arrivalLane="978400303#0_3" arrivalPos="149.14" arrivalSpeed="19.03" duration="104.00" routeLength="273.05" waitingTime="76.00" waitingCount="1" stopTime="0.00" timeLoss="89.08" rerouteNo="0" devices="tripinfo_commuter_N_W.1" vType="car_commuter" speedFactor="1.03" vaporized=""/>
    <tripinfo id="commuter_N_E.0" depart="27.00" departLane="754598165#2_0" departPos="5.10" departSpeed="0.00" departDelay="0.00" arrival="140.00" arrivalLane="563175146#1_0" arrivalPos="228.90" arrivalSpeed="19.41" duration="113.00" routeLength="331.30" waitingTime="82.00" waitingCount="1" stopTime="0.00" timeLoss="95.50" rerouteNo="0" devices="tripinfo_commuter_N_E.0" vType="car_commuter" speedFactor="1.11" vaporized=""/>
    <tripinfo id="bg_E_N.1" depart="86.00" departLane="749662140#0_0" departPos="5.10" departSpeed="0.00" departDelay="0.00" arrival="155.00" arrivalLane="749988360#0_2" arrivalPos="93.21" arrivalSpeed="18.83" duration="69.00" routeLength="241.59" waitingTime="43.00" waitingCount="1" stopTime="0.00" timeLoss="55.99" rerouteNo="0" devices="tripinfo_bg_E_N.1" vType="car_commuter" speedFactor="1.08" vaporized=""/>
    <tripinfo id="bg_E_W.1" depart="26.00" departLane="749662140#0_0" departPos="5.10" departSpeed="0.00" departDelay="0.00" arrival="157.00" arrivalLane="978400303#0_0" arrivalPos="149.14" arrivalSpeed="19.47" duration="131.00" routeLength="297.03" waitingTime="105.00" waitingCount="1" stopTime="0.00" timeLoss="116.11" rerouteNo="0" devices="tripinfo_bg_E_W.1" vType="car_commuter" speedFactor="1.11" vaporized=""/>
    <tripinfo id="bg_E_N.2" depart="98.00" departLane="749662140#0_0" departPos="5.10" departSpeed="0.00" departDelay="1.00" arrival="157.00" arrivalLane="749988360#0_2" arrivalPos="93.21" arrivalSpeed="19.15" duration="59.00" routeLength="241.59" waitingTime="32.00" waitingCount="1" stopTime="0.00" timeLoss="46.11" rerouteNo="0" devices="tripinfo_bg_E_N.2" vType="car_commuter" speedFactor="1.05" vaporized=""/>
    <tripinfo id="bg_E_W.2" depart="62.00" departLane="749662140#0_0" departPos="5.10" departSpeed="0.00" departDelay="0.00" arrival="158.00" arrivalLane="978400303#0_0" arrivalPos="149.14" arrivalSpeed="19.10" duration="96.00" routeLength="297.03" waitingTime="69.00" waitingCount="1" stopTime="0.00" timeLoss="80.42" rerouteNo="0" devices="tripinfo_bg_E_W.2" vType="car_commuter" speedFactor="0.93" vaporized=""/>
    <tripinfo id="bg_E_W.4" depart="115.00" departLane="749662140#0_0" departPos="5.10" departSpeed="0.00" departDelay="0.00" arrival="158.00" arrivalLane="978400303#0_2" arrivalPos="149.14" arrivalSpeed="19.91" duration="43.00" routeLength="297.03" waitingTime="15.00" waitingCount="1" stopTime="0.00" timeLoss="27.21" rerouteNo="0" devices="tripinfo_bg_E_W.4" vType="car_commuter" speedFactor="1.10" vaporized=""/>
    <tripinfo id="commuter_N_S.14" depart="68.00" departLane="754598165#2_0" departPos="5.10" departSpeed="0.00" departDelay="1.00" arrival="160.00" arrivalLane="757092064#1_2" arrivalPos="81.46" arrivalSpeed="19.94" duration="92.00" routeLength="213.54" waitingTime="64.00" waitingCount="2" stopTime="0.00" timeLoss="80.96" rerouteNo="0" devices="tripinfo_commuter_N_S.14" vType="car_commuter" speedFactor="1.25" vaporized=""/>
    <tripinfo id="bg_E_W.3" depart="95.00" departLane="749662140#0_0" departPos="5.10" departSpeed="0.00" departDelay="0.00" arrival="160.00" arrivalLane="978400303#0_0" arrivalPos="149.14" arrivalSpeed="19.50" duration="65.00" routeLength="297.03" waitingTime="35.00" waitingCount="1" stopTime="0.00" timeLoss="49.36" rerouteNo="0" devices="tripinfo_bg_E_W.3" vType="car_commuter" speedFactor="0.95" vaporized=""/>
    <tripinfo id="commuter_N_S.12" depart="57.00" departLane="754598165#2_0" departPos="5.10" departSpeed="0.00" departDelay="0.00" arrival="161.00" arrivalLane="757092064#1_0" arrivalPos="81.46" arrivalSpeed="18.92" duration="104.00" routeLength="213.54" waitingTime="75.00" waitingCount="2" stopTime="0.00" timeLoss="92.69" rerouteNo="0" devices="tripinfo_commuter_N_S.12" vType="car_commuter" speedFactor="0.97" vaporized=""/>
    <tripinfo id="commuter_N_S.10" depart="51.00" departLane="754598165#2_0" departPos="5.10" departSpeed="0.00" departDelay="0.00" arrival="162.00" arrivalLane="757092064#1_0" arrivalPos="81.46" arrivalSpeed="19.08" duration="111.00" routeLength="213.54" waitingTime="79.00" waitingCount="2" stopTime="0.00" timeLoss="100.27" rerouteNo="0" devices="tripinfo_commuter_N_S.10" vType="car_commuter" speedFactor="0.98" vaporized=""/>
    <tripinfo id="commuter_N_S.15" depart="84.00" departLane="754598165#2_0" departPos="5.10" departSpeed="0.00" departDelay="0.00" arrival="162.00" arrivalLane="757092064#1_1" arrivalPos="81.46" arrivalSpeed="18.77" duration="78.00" routeLength="213.54" waitingTime="50.00" waitingCount="2" stopTime="0.00" timeLoss="66.65" rerouteNo="0" devices="tripinfo_commuter_N_S.15" vType="car_commuter" speedFactor="0.93" vaporized=""/>
    <tripinfo id="commuter_N_S.17" depart="91.00" departLane="754598165#2_0" departPos="5.10" departSpeed="0.00" departDelay="0.00" arrival="163.00" arrivalLane="757092064#1_2" arrivalPos="81.46" arrivalSpeed="18.77" duration="72.00" routeLength="213.54" waitingTime="43.00" waitingCount="2" stopTime="0.00" timeLoss="60.59" rerouteNo="0" devices="tripinfo_commuter_N_S.17" vType="car_commuter" speedFactor="0.96" vaporized=""/>
    <tripinfo id="commuter_N_S.16" depart="87.00" departLane="754598165#2_0" departPos="5.10" departSpeed="0.00" departDelay="0.00" arrival="164.00" arrivalLane="757092064#1_1" arrivalPos="81.46" arrivalSpeed="19.90" duration="77.00" routeLength="213.54" waitingTime="45.00" waitingCount="2" stopTime="0.00" timeLoss="65.88" rerouteNo="0" devices="tripinfo_commuter_N_S.16" vType="car_commuter" speedFactor="1.07" vaporized=""/>
    <tripinfo id="commuter_N_S.13" depart="65.00" departLane="754598165#2_0" departPos="5.10" departSpeed="0.00" departDelay="0.00" arrival="165.00" arrivalLane="757092064#1_0" arrivalPos="81.46" arrivalSpeed="19.41" duration="100.00" routeLength="213.54" waitingTime="66.00" waitingCount="2" stopTime="0.00" timeLoss="88.38" rerouteNo="0" devices="tripinfo_commuter_N_S.13" vType="car_commuter" speedFactor="1.07" vaporized=""/>
    <tripinfo id="commuter_N_S.18" depart="128.00" departLane="754598165#2_0" departPos="5.10" departSpeed="0.00" departDelay="36.00" arrival="165.00" arrivalLane="757092064#1_2" arrivalPos="81.46" arrivalSpeed="19.59" duration="37.00" routeLength="213.54" waitingTime="13.00" waitingCount="1" stopTime="0.00" timeLoss="25.39" rerouteNo="0" devices="tripinfo_commuter_N_S.18" vType="car_commuter" speedFactor="1.08" vaporized=""/>
    <tripinfo id="commuter_N_S.20" depart="137.00" departLane="754598165#2_0" departPos="5.10" departSpeed="0.00" departDelay="34.00" arrival="166.00" arrivalLane="757092064#1_2" arrivalPos="81.46" arrivalSpeed="18.86" duration="29.00" routeLength="213.54" waitingTime="4.00" waitingCount="1" stopTime="0.00" timeLoss="18.00" rerouteNo="0" devices="tripinfo_commuter_N_S.20" vType="car_commuter" speedFactor="1.02" vaporized=""/>
    <tripinfo id="commuter_N_E.1" depart="34.00" departLane="754598165#2_0" departPos="5.10" departSpeed="0.00" departDelay="3.00" arrival="167.00" arrivalLane="563175146#1_0" arrivalPos="228.90" arrivalSpeed="18.77" duration="133.00" routeLength="331.30" waitingTime="98.00" waitingCount="2" stopTime="0.00" timeLoss="114.72" rerouteNo="0" devices="tripinfo_commuter_N_E.1" vType="car_commuter" speedFactor="0.93" vaporized=""/>
    <tripinfo id="commuter_N_S.19" depart="134.00" departLane="754598165#2_0" departPos="5.10" departSpeed="0.00" departDelay="36.00" arrival="167.00" arrivalLane="757092064#1_1" arrivalPos="81.46" arrivalSpeed="18.85" duration="33.00" routeLength="213.54" waitingTime="8.00" waitingCount="1" stopTime="0.00" timeLoss="21.42" rerouteNo="0" devices="tripinfo_commuter_N_S.19" vType="car_commuter" speedFactor="0.94" vaporized=""/>
    <tripinfo id="commuter_N_E.2" depart="92.00" departLane="754598165#2_0" departPos="5.10" departSpeed="0.00" departDelay="1.00" arrival="173.00" arrivalLane="563175146#1_0" arrivalPos="228.90" arrivalSpeed="18.70" duration="81.00" routeLength="331.30" waitingTime="46.00" waitingCount="2" stopTime="0.00" timeLoss="62.55" rerouteNo="0" devices="tripinfo_commuter_N_E.2" vType="car_commuter" speedFactor="0.94" vaporized=""/>
    <tripinfo id="bg_E_N.3" depart="105.00" departLane="749662140#0_0" departPos="5.10" departSpeed="0.00" departDelay="0.00" arrival="177.00" arrivalLane="749988360#0_2" arrivalPos="93.21" arrivalSpeed="19.36" duration="72.00" routeLength="241.59" waitingTime="44.00" waitingCount="2" stopTime="0.00" timeLoss="58.79" rerouteNo="0" devices="tripinfo_bg_E_N.3" vType="car_commuter" speedFactor="1.02" vaporized=""/>
    <tripinfo id="bg_E_S.0" depart="152.00" departLane="749662140#0_0" departPos="5.10" departSpeed="0.00" departDelay="0.00" arrival="177.00" arrivalLane="757092064#1_0" arrivalPos="81.46" arrivalSpeed="17.26" duration="25.00" routeLength="177.43" waitingTime="2.00" waitingCount="1" stopTime="0.00" timeLoss="14.67" rerouteNo="0" devices="tripinfo_bg_E_S.0" vType="car_commuter" speedFactor="0.99" vaporized=""/>
    <tripinfo id="bg_E_W.5" depart="144.00" departLane="749662140#0_0" departPos="5.10" departSpeed="0.00" departDelay="0.00" arrival="180.00" arrivalLane="978400303#0_0" arrivalPos="149.14" arrivalSpeed="19.92" duration="36.00" routeLength="297.03" waitingTime="9.00" waitingCount="1" stopTime="0.00" timeLoss="20.59" rerouteNo="0" devices="tripinfo_bg_E_W.5" vType="car_commuter" speedFactor="1.06" vaporized=""/>
    <tripinfo id="commuter_N_S.21" depart="143.00" departLane="754598165#2_0" departPos="5.10" departSpeed="0.00" departDelay="23.00" arrival="186.00" arrivalLane="757092064#1_0" arrivalPos="81.46" arrivalSpeed="18.88" duration="43.00" routeLength="213.54" waitingTime="13.00" waitingCount="2" stopTime="0.00" timeLoss="32.23" rerouteNo="0" devices="tripinfo_commuter_N_S.21" vType="car_commuter" speedFactor="0.94" vaporized=""/>
    <tripinfo id="commuter_N_S.22" depart="146.00" departLane="754598165#2_0" departPos="5.10" departSpeed="0.00" departDelay="23.00" arrival="189.00" arrivalLane="757092064#1_2" arrivalPos="81.46" arrivalSpeed="19.35" duration="43.00" routeLength="213.54" waitingTime="13.00" waitingCount="1" stopTime="0.00" timeLoss="31.72" rerouteNo="0" devices="tripinfo_commuter_N_S.22" vType="car_commuter" speedFactor="0.99" vaporized=""/>
    <tripinfo id="commuter_N_S.23" depart="149.00" departLane="754598165#2_0" departPos="5.10" departSpeed="0.00" departDelay="19.00" arrival="189.00" arrivalLane="757092064#1_1" arrivalPos="81.46" arrivalSpeed="18.94" duration="40.00" routeLength="213.54" waitingTime="10.00" waitingCount="1" stopTime="0.00" timeLoss="28.46" rerouteNo="0" devices="tripinfo_commuter_N_S.23" vType="car_commuter" speedFactor="1.00" vaporized=""/>
    <tripinfo id="commuter_N_W.2" depart="145.00" departLane="754598165#2_0" departPos="5.10" departSpeed="0.00" departDelay="23.00" arrival="190.00" arrivalLane="978400303#0_3" arrivalPos="149.14" arrivalSpeed="19.47" duration="45.00" routeLength="273.05" waitingTime="13.00" waitingCount="1" stopTime="0.00" timeLoss="29.90" rerouteNo="0" devices="tripinfo_commuter_N_W.2" vType="car_commuter" speedFactor="1.08" vaporized=""/>
    <tripinfo id="commuter_N_E.3" depart="131.00" departLane="754598165#2_0" departPos="5.10" departSpeed="0.00" departDelay="36.00" arrival="193.00" arrivalLane="563175146#1_0" arrivalPos="228.90" arrivalSpeed="19.26" duration="62.00" routeLength="331.30" waitingTime="27.00" waitingCount="2" stopTime="0.00" timeLoss="44.10" rerouteNo="0" devices="tripinfo_commuter_N_E.3" vType="car_commuter" speedFactor="0.98" vaporized=""/>
    <tripinfo id="commuter_N_E.4" depart="140.00" departLane="754598165#2_0" departPos="5.10" departSpeed="0.00" departDelay="32.00" arrival="194.00" arrivalLane="563175146#1_0" arrivalPos="228.90" arrivalSpeed="19.18" duration="54.00" routeLength="331.30" waitingTime="17.00" waitingCount="2" stopTime="0.00" timeLoss="36.57" rerouteNo="0" devices="tripinfo_commuter_N_E.4" vType="car_commuter" speedFactor="1.00" vaporized=""/>
    <tripinfo id="commuter_N_E.5" depart="152.00" departLane="754598165#2_0" departPos="5.10" departSpeed="0.00" departDelay="21.00" arrival="197.00" arrivalLane="563175146#1_0" arrivalPos="228.90" arrivalSpeed="18.83" duration="45.00" routeLength="331.30" waitingTime="11.00" waitingCount="1" stopTime="0.00" timeLoss="26.39" rerouteNo="0" devices="tripinfo_commuter_N_E.5" vType="car_commuter" speedFactor="0.83" vaporized=""/>
    <tripinfo id="commuter_N_S.24" depart="156.00" departLane="754598165#2_0" departPos="5.10" departSpeed="0.00" departDelay="22.00" arrival="266.00" arrivalLane="757092064#1_1" arrivalPos="81.46" arrivalSpeed="18.98" duration="110.00" routeLength="213.54" waitingTime="83.00" waitingCount="2" stopTime="0.00" timeLoss="99.27" rerouteNo="0" devices="tripinfo_commuter_N_S.24" vType="car_commuter" speedFactor="1.01" vaporized=""/>
    <tripinfo id="commuter_N_S.25" depart="161.00" departLane="754598165#2_0" departPos="5.10" departSpeed="0.00" departDelay="15.00" arrival="267.00" arrivalLane="757092064#1_0" arrivalPos="81.46" arrivalSpeed="19.45" duration="106.00" routeLength="213.54" waitingTime="77.00" waitingCount="2" stopTime="0.00" timeLoss="94.94" rerouteNo="0" devices="tripinfo_commuter_N_S.25" vType="car_commuter" speedFactor="0.91" vaporized=""/>
    <tripinfo id="commuter_N_S.26" depart="168.00" departLane="754598165#2_0" departPos="5.10" departSpeed="0.00" departDelay="10.00" arrival="269.00" arrivalLane="757092064#1_1" arrivalPos="81.46" arrivalSpeed="18.95" duration="101.00" routeLength="213.54" waitingTime="73.00" waitingCount="2" stopTime="0.00" timeLoss="89.62" rerouteNo="0" devices="tripinfo_commuter_N_S.26" vType="car_commuter" speedFactor="1.13" vaporized=""/>
    <tripinfo id="commuter_N_W.3" depart="155.00" departLane="754598165#2_0" departPos="5.10" departSpeed="0.00" departDelay="23.00" arrival="270.00" arrivalLane="978400303#0_3" arrivalPos="149.14" arrivalSpeed="19.48" duration="115.00" routeLength="273.05" waitingTime="82.00" waitingCount="2" stopTime="0.00" timeLoss="100.01" rerouteNo="0" devices="tripinfo_commuter_N_W.3" vType="car_commuter" speedFactor="1.08" vaporized=""/>
    <tripinfo id="commuter_N_S.27" depart="169.00" departLane="754598165#2_0" departPos="5.10" departSpeed="0.00" departDelay="10.00" arrival="270.00" arrivalLane="757092064#1_1" arrivalPos="81.46" arrivalSpeed="19.64" duration="101.00" routeLength="213.54" waitingTime="72.00" waitingCount="1" stopTime="0.00" timeLoss="90.11" rerouteNo="0" devices="tripinfo_commuter_N_S.27" vType="car_commuter" speedFactor="0.90" vaporized=""/>
    <tripinfo id="commuter_N_S.28" depart="173.00" departLane="754598165#2_0" departPos="5.10" departSpeed="0.00" departDelay="13.00" arrival="270.00" arrivalLane="757092064#1_0" arrivalPos="81.46" arrivalSpeed="19.16" duration="97.00" routeLength="213.54" waitingTime="68.00" waitingCount="1" stopTime="0.00" timeLoss="86.16" rerouteNo="0" devices="tripinfo_commuter_N_S.28" vType="car_commuter" speedFactor="1.01" vaporized=""/>
    <tripinfo id="commuter_N_S.29" depart="176.00" departLane="754598165#2_0" departPos="5.10" departSpeed="0.00" departDelay="13.00" arrival="272.00" arrivalLane="757092064#1_1" arrivalPos="81.46" arrivalSpeed="19.32" duration="96.00" routeLength="213.54" waitingTime="72.00" waitingCount="1" stopTime="0.00" timeLoss="84.68" rerouteNo="0" devices="tripinfo_commuter_N_S.29" vType="car_commuter" speedFactor="0.95" vaporized=""/>
    <tripinfo id="commuter_N_S.30" depart="178.00" departLane="754598165#2_0" departPos="5.10" departSpeed="0.00" departDelay="14.00" arrival="272.00" arrivalLane="757092064#1_0" arrivalPos="81.46" arrivalSpeed="18.84" duration="94.00" routeLength="213.54" waitingTime="69.00" waitingCount="1" stopTime="0.00" timeLoss="82.84" rerouteNo="0" devices="tripinfo_commuter_N_S.30" vType="car_commuter" speedFactor="0.83" vaporized=""/>
    <tripinfo id="commuter_N_W.4" depart="159.00" departLane="754598165#2_0" departPos="5.10" departSpeed="0.00" departDelay="24.00" arrival="273.00" arrivalLane="978400303#0_3" arrivalPos="149.14" arrivalSpeed="18.92" duration="114.00" routeLength="273.05" waitingTime="79.00" waitingCount="2" stopTime="0.00" timeLoss="98.30" rerouteNo="0" devices="tripinfo_commuter_N_W.4" vType="car_commuter" speedFactor="0.92" vaporized=""/>
    <tripinfo id="commuter_N_S.31" depart="185.00" departLane="754598165#2_0" departPos="5.10" departSpeed="0.00" departDelay="8.00" arrival="273.00" arrivalLane="757092064#1_1" arrivalPos="81.46" arrivalSpeed="19.69" duration="88.00" routeLength="213.54" waitingTime="65.00" waitingCount="1" stopTime="0.00" timeLoss="77.17" rerouteNo="0" devices="tripinfo_commuter_N_S.31" vType="car_commuter" speedFactor="1.00" vaporized=""/>
    <tripinfo id="commuter_N_E.6" depart="164.00" departLane="754598165#2_0" departPos="5.10" departSpeed="0.00" departDelay="12.00" arrival="274.00" arrivalLane="563175146#1_0" arrivalPos="228.90" arrivalSpeed="19.54" duration="110.00" routeLength="331.30" waitingTime="76.00" waitingCount="2" stopTime="0.00" timeLoss="92.51" rerouteNo="0" devices="tripinfo_commuter_N_E.6" vType="car_commuter" speedFactor="0.98" vaporized=""/>
    <tripinfo id="commuter_N_W.5" depart="160.00" departLane="754598165#2_0" departPos="5.10" departSpeed="0.00" departDelay="24.00" arrival="275.00" arrivalLane="978400303#0_3" arrivalPos="149.14" arrivalSpeed="18.98" duration="115.00" routeLength="273.05" waitingTime="78.00" waitingCount="2" stopTime="0.00" timeLoss="98.95" rerouteNo="0" devices="tripinfo_commuter_N_W.5" vType="car_commuter" speedFactor="0.96" vaporized=""/>
    <tripinfo id="commuter_N_W.6" depart="167.00" departLane="754598165#2_0" departPos="5.10" departSpeed="0.00" departDelay="12.00" arrival="277.00" arrivalLane="978400303#0_3" arrivalPos="149.14" arrivalSpeed="19.02" duration="110.00" routeLength="273.05" waitingTime="75.00" waitingCount="2" stopTime="0.00" timeLoss="93.82" rerouteNo="0" devices="tripinfo_commuter_N_W.6" vType="car_commuter" speedFactor="0.89" vaporized=""/>
    <tripinfo id="bg_E_S.1" depart="218.00" departLane="749662140#0_0" departPos="5.10" departSpeed="0.00" departDelay="0.00" arrival="280.00" arrivalLane="757092064#1_0" arrivalPos="81.46" arrivalSpeed="18.53" duration="62.00" routeLength="177.43" waitingTime="39.00" waitingCount="1" stopTime="0.00" timeLoss="51.74" rerouteNo="0" devices="tripinfo_bg_E_S.1" vType="car_commuter" speedFactor="0.89" vaporized=""/>
    <tripinfo id="bg_E_N.4" depart="210.00" departLane="749662140#0_0" departPos="5.10" departSpeed="0.00" departDelay="0.00" arrival="284.00" arrivalLane="749988360#0_2" arrivalPos="93.21" arrivalSpeed="19.00" duration="74.00" routeLength="241.59" waitingTime="47.00" waitingCount="1" stopTime="0.00" timeLoss="60.58" rerouteNo="0" devices="tripinfo_bg_E_N.4" vType="car_commuter" speedFactor="0.99" vaporized=""/>
    <tripinfo id="bg_E_S.2" depart="241.00" departLane="749662140#0_0" departPos="5.10" departSpeed="0.00" departDelay="0.00" arrival="285.00" arrivalLane="757092064#1_0" arrivalPos="81.46" arrivalSpeed="19.33" duration="44.00" routeLength="177.43" waitingTime="20.00" waitingCount="1" stopTime="0.00" timeLoss="33.66" rerouteNo="0" devices="tripinfo_bg_E_S.2" vType="car_commuter" speedFactor="1.10" vaporized=""/>
    <tripinfo id="bg_E_W.6" depart="221.00" departLane="749662140#0_0" departPos="5.10" departSpeed="0.00" departDelay="2.00" arrival="286.00" arrivalLane="978400303#0_1" arrivalPos="149.14" arrivalSpeed="19.82" duration="65.00" routeLength="297.03" waitingTime="36.00" waitingCount="1" stopTime="0.00" timeLoss="49.37" rerouteNo="0" devices="tripinfo_bg_E_W.6" vType="car_commuter" speedFactor="1.26" vaporized=""/>
    <tripinfo id="bg_E_W.8" depart="245.00" departLane="749662140#0_0" departPos="5.10" departSpeed="0.00" departDelay="0.00" arrival="286.00" arrivalLane="978400303#0_2" arrivalPos="149.14" arrivalSpeed="19.05" duration="41.00" routeLength="297.03" waitingTime="12.00" waitingCount="1" stopTime="0.00" timeLoss="26.08" rerouteNo="0" devices="tripinfo_bg_E_W.8" vType="car_commuter" speedFactor="1.17" vaporized=""/>
    <tripinfo id="bg_E_W.7" depart="227.00" departLane="749662140#0_0" departPos="5.10" departSpeed="0.00" departDelay="0.00" arrival="288.00" arrivalLane="978400303#0_0" arrivalPos="149.14" arrivalSpeed="18.74" duration="61.00" routeLength="297.03" waitingTime="32.00" waitingCount="1" stopTime="0.00" timeLoss="45.86" rerouteNo="0" devices="tripinfo_bg_E_W.7" vType="car_commuter" speedFactor="1.04" vaporized=""/>
    <tripinfo id="bg_E_W.9" depart="262.00" departLane="749662140#0_0" departPos="5.10" departSpeed="0.00" departDelay="0.00" arrival="288.00" arrivalLane="978400303#0_1" arrivalPos="149.14" arrivalSpeed="19.61" duration="26.00" routeLength="297.03" waitingTime="0.00" waitingCount="0" stopTime="0.00" timeLoss="10.19" rerouteNo="0" devices="tripinfo_bg_E_W.9" vType="car_commuter" speedFactor="0.94" vaporized=""/>
    <tripinfo id="commuter_N_S.33" depart="192.00" departLane="754598165#2_0" departPos="5.10" departSpeed="0.00" departDelay="13.00" arrival="292.00" arrivalLane="757092064#1_1" arrivalPos="81.46" arrivalSpeed="19.30" duration="100.00" routeLength="213.54" waitingTime="70.00" waitingCount="2" stopTime="0.00" timeLoss="88.86" rerouteNo="0" devices="tripinfo_commuter_N_S.33" vType="car_commuter" speedFactor="1.03" vaporized=""/>
    <tripinfo id="commuter_N_S.32" depart="189.00" departLane="754598165#2_0" departPos="5.10" departSpeed="0.00" departDelay="11.00" arrival="294.00" arrivalLane="757092064#1_0" arrivalPos="81.46" arrivalSpeed="19.27" duration="105.00" routeLength="213.54" waitingTime="76.00" waitingCount="2" stopTime="0.00" timeLoss="94.29" rerouteNo="0" devices="tripinfo_commuter_N_S.32" vType="car_commuter" speedFactor="0.98" vaporized=""/>
    <tripinfo id="commuter_N_S.34" depart="195.00" departLane="754598165#2_0" departPos="5.10" departSpeed="0.00" departDelay="15.00" arrival="294.00" arrivalLane="757092064#1_1" arrivalPos="81.46" arrivalSpeed="19.43" duration="99.00" routeLength="213.54" waitingTime="68.00" waitingCount="2" stopTime="0.00" timeLoss="87.79" rerouteNo="0" devices="tripinfo_commuter_N_S.34" vType="car_commuter" speedFactor="0.95" vaporized=""/>