<?xml version="1.0" encoding="UTF-8"?>

<!-- generated on 2025-06-03 02:08:59 by Eclipse SUMO sumo Version 1.22.0
<sumoConfiguration xmlns:xsi="http://www.w3.org/2001/XMLSchema-instance" xsi:noNamespaceSchemaLocation="http://sumo.dlr.de/xsd/sumoConfiguration.xsd">

    <input>
        <net-file value="osm.net.xml"/>
        <route-files value="route.rou.xml"/>
        <additional-files value="osm.poly.xml.gz"/>
    </input>

    <output>
        <summary-output value="summary_eval_offline_4act_ep2.xml"/>
        <tripinfo-output value="tripinfo_eval_offline_4act_ep2.xml"/>
    </output>

    <time>
        <begin value="0"/>
        <end value="3600"/>
    </time>

    <processing>
        <time-to-teleport value="-1"/>
        <waiting-time-memory value="1000"/>
    </processing>

    <report>
        <verbose value="true"/>
        <duration-log.statistics value="true"/>
        <no-step-log value="true"/>
    </report>

    <traci_server>
        <remote-port value="62847"/>
    </traci_server>

    <random_number>
        <seed value="19542"/>
    </random_number>

</sumoConfiguration>
-->

<tripinfos xmlns:xsi="http://www.w3.org/2001/XMLSchema-instance" xsi:noNamespaceSchemaLocation="http://sumo.dlr.de/xsd/tripinfo_file.xsd">
    <tripinfo id="bg_E_W.0" depart="36.00" departLane="749662140#0_0" departPos="5.10" departSpeed="0.00" departDelay="0.00" arrival="56.00" arrivalLane="978400303#0_0" arrivalPos="149.14" arrivalSpeed="19.48" duration="20.00" routeLength="297.03" waitingTime="0.00" waitingCount="0" stopTime="0.00" timeLoss="5.08" rerouteNo="0" devices="tripinfo_bg_E_W.0" vType="car_commuter" speedFactor="0.84" vaporized=""/>
    <tripinfo id="commuter_N_S.0" depart="15.00" departLane="754598165#2_0" departPos="5.10" departSpeed="0.00" departDelay="0.00" arrival="64.00" arrivalLane="757092064#1_0" arrivalPos="81.46" arrivalSpeed="19.43" duration="49.00" routeLength="213.54" waitingTime="25.00" waitingCount="1" stopTime="0.00" timeLoss="37.44" rerouteNo="0" devices="tripinfo_commuter_N_S.0" vType="car_commuter" speedFactor="1.02" vaporized=""/>
    <tripinfo id="commuter_N_S.1" depart="31.00" departLane="754598165#2_0" departPos="5.10" departSpeed="0.00" departDelay="2.00" arrival="64.00" arrivalLane="757092064#1_1" arrivalPos="81.46" arrivalSpeed="19.16" duration="33.00" routeLength="213.54" waitingTime="8.00" waitingCount="1" stopTime="0.00" timeLoss="21.59" rerouteNo="0" devices="tripinfo_commuter_N_S.1" vType="car_commuter" speedFactor="0.97" vaporized=""/>
    <tripinfo id="commuter_N_S.2" depart="48.00" departLane="754598165#2_0" departPos="5.10" departSpeed="0.00" departDelay="0.00" arrival="65.00" arrivalLane="757092064#1_1" arrivalPos="81.46" arrivalSpeed="19.82" duration="17.00" routeLength="213.54" waitingTime="0.00" waitingCount="0" stopTime="0.00" timeLoss="6.14" rerouteNo="0" devices="tripinfo_commuter_N_S.2" vType="car_commuter" speedFactor="1.19" vaporized=""/>
    <tripinfo id="commuter_N_W.0" depart="27.00" departLane="754598165#2_0" departPos="5.10" departSpeed="0.00" departDelay="0.00" arrival="67.00" arrivalLane="978400303#0_3" arrivalPos="149.14" arrivalSpeed="19.69" duration="40.00" routeLength="273.05" waitingTime="12.00" waitingCount="1" stopTime="0.00" timeLoss="25.48" rerouteNo="0" devices="tripinfo_commuter_N_W.0" vType="car_commuter" speedFactor="1.21" vaporized=""/>
    <tripinfo id="commuter_N_S.3" depart="51.00" departLane="754598165#2_0" departPos="5.10" departSpeed="0.00" departDelay="1.00" arrival="69.00" arrivalLane="757092064#1_1" arrivalPos="81.46" arrivalSpeed="19.51" duration="18.00" routeLength="213.54" waitingTime="0.00" waitingCount="0" stopTime="0.00" timeLoss="6.66" rerouteNo="0" devices="tripinfo_commuter_N_S.3" vType="car_commuter" speedFactor="0.91" vaporized=""/>
    <tripinfo id="commuter_N_E.0" depart="22.00" departLane="754598165#2_0" departPos="5.10" departSpeed="0.00" departDelay="0.00" arrival="71.00" arrivalLane="563175146#1_0" arrivalPos="228.90" arrivalSpeed="19.75" duration="49.00" routeLength="331.30" waitingTime="21.00" waitingCount="1" stopTime="0.00" timeLoss="31.21" rerouteNo="0" devices="tripinfo_commuter_N_E.0" vType="car_commuter" speedFactor="0.96" vaporized=""/>
    <tripinfo id="commuter_N_E.1" depart="28.00" departLane="754598165#2_0" departPos="5.10" departSpeed="0.00" departDelay="0.00" arrival="73.00" arrivalLane="563175146#1_0" arrivalPos="228.90" arrivalSpeed="19.40" duration="45.00" routeLength="331.30" waitingTime="16.00" waitingCount="1" stopTime="0.00" timeLoss="27.25" rerouteNo="0" devices="tripinfo_commuter_N_E.1" vType="car_commuter" speedFactor="1.11" vaporized=""/>
    <tripinfo id="commuter_N_S.4" depart="54.00" departLane="754598165#2_0" departPos="5.10" departSpeed="0.00" departDelay="0.00" arrival="73.00" arrivalLane="757092064#1_0" arrivalPos="81.46" arrivalSpeed="19.83" duration="19.00" routeLength="213.54" waitingTime="0.00" waitingCount="0" stopTime="0.00" timeLoss="7.44" rerouteNo="0" devices="tripinfo_commuter_N_S.4" vType="car_commuter" speedFactor="0.78" vaporized=""/>
    <tripinfo id="commuter_N_E.2" depart="39.00" departLane="754598165#2_0" departPos="5.10" departSpeed="0.00" departDelay="0.00" arrival="75.00" arrivalLane="563175146#1_0" arrivalPos="228.90" arrivalSpeed="19.56" duration="36.00" routeLength="331.30" waitingTime="7.00" waitingCount="1" stopTime="0.00" timeLoss="18.32" rerouteNo="0" devices="tripinfo_commuter_N_E.2" vType="car_commuter" speedFactor="0.96" vaporized=""/>
    <tripinfo id="commuter_N_E.3" depart="44.00" departLane="754598165#2_0" departPos="5.10" departSpeed="0.00" departDelay="0.00" arrival="77.00" arrivalLane="563175146#1_0" arrivalPos="228.90" arrivalSpeed="18.93" duration="33.00" routeLength="331.30" waitingTime="4.00" waitingCount="1" stopTime="0.00" timeLoss="15.25" rerouteNo="0" devices="tripinfo_commuter_N_E.3" vType="car_commuter" speedFactor="1.05" vaporized=""/>
    <tripinfo id="bg_E_N.0" depart="43.00" departLane="749662140#0_0" departPos="5.10" departSpeed="0.00" departDelay="0.00" arrival="78.00" arrivalLane="749988360#0_2" arrivalPos="93.21" arrivalSpeed="19.40" duration="35.00" routeLength="241.59" waitingTime="13.00" waitingCount="1" stopTime="0.00" timeLoss="22.06" rerouteNo="0" devices="tripinfo_bg_E_N.0" vType="car_commuter" speedFactor="0.89" vaporized=""/>
    <tripinfo id="bg_E_W.1" depart="51.00" departLane="749662140#0_0" departPos="5.10" departSpeed="0.00" departDelay="0.00" arrival="83.00" arrivalLane="978400303#0_0" arrivalPos="149.14" arrivalSpeed="19.08" duration="32.00" routeLength="297.03" waitingTime="2.00" waitingCount="1" stopTime="0.00" timeLoss="16.93" rerouteNo="0" devices="tripinfo_bg_E_W.1" vType="car_commuter" speedFactor="0.95" vaporized=""/>
    <tripinfo id="bg_E_W.2" depart="65.00" departLane="749662140#0_0" departPos="5.10" departSpeed="0.00" departDelay="0.00" arrival="86.00" arrivalLane="978400303#0_0" arrivalPos="149.14" arrivalSpeed="18.85" duration="21.00" routeLength="297.03" waitingTime="0.00" waitingCount="0" stopTime="0.00" timeLoss="5.55" rerouteNo="0" devices="tripinfo_bg_E_W.2" vType="car_commuter" speedFactor="0.98" vaporized=""/>
    <tripinfo id="bg_E_W.3" depart="71.00" departLane="749662140#0_0" departPos="5.10" departSpeed="0.00" departDelay="0.00" arrival="91.00" arrivalLane="978400303#0_0" arrivalPos="149.14" arrivalSpeed="19.87" duration="20.00" routeLength="297.03" waitingTime="0.00" waitingCount="0" stopTime="0.00" timeLoss="4.85" rerouteNo="0" devices="tripinfo_bg_E_W.3" vType="car_commuter" speedFactor="0.98" vaporized=""/>
    <tripinfo id="bg_E_S.0" depart="74.00" departLane="749662140#0_0" departPos="5.10" departSpeed="0.00" departDelay="1.00" arrival="93.00" arrivalLane="757092064#1_0" arrivalPos="81.46" arrivalSpeed="17.95" duration="19.00" routeLength="177.43" waitingTime="0.00" waitingCount="0" stopTime="0.00" timeLoss="8.61" rerouteNo="0" devices="tripinfo_bg_E_S.0" vType="car_commuter" speedFactor="0.83" vaporized=""/>
    <tripinfo id="bg_E_W.4" depart="91.00" departLane="749662140#0_0" departPos="5.10" departSpeed="0.00" departDelay="0.00" arrival="111.00" arrivalLane="978400303#0_0" arrivalPos="149.14" arrivalSpeed="19.76" duration="20.00" routeLength="297.03" waitingTime="0.00" waitingCount="0" stopTime="0.00" timeLoss="5.02" rerouteNo="0" devices="tripinfo_bg_E_W.4" vType="car_commuter" speedFactor="1.00" vaporized=""/>
    <tripinfo id="bg_E_W.5" depart="108.00" departLane="749662140#0_0" departPos="5.10" departSpeed="0.00" departDelay="0.00" arrival="128.00" arrivalLane="978400303#0_0" arrivalPos="149.14" arrivalSpeed="18.88" duration="20.00" routeLength="297.03" waitingTime="0.00" waitingCount="0" stopTime="0.00" timeLoss="4.95" rerouteNo="0" devices="tripinfo_bg_E_W.5" vType="car_commuter" speedFactor="0.97" vaporized=""/>
    <tripinfo id="commuter_N_S.5" depart="57.00" departLane="754598165#2_0" departPos="5.10" departSpeed="0.00" departDelay="2.00" arrival="134.00" arrivalLane="757092064#1_0" arrivalPos="81.46" arrivalSpeed="19.44" duration="77.00" routeLength="213.54" waitingTime="56.00" waitingCount="1" stopTime="0.00" timeLoss="66.01" rerouteNo="0" devices="tripinfo_commuter_N_S.5" vType="car_commuter" speedFactor="0.86" vaporized=""/>
    <tripinfo id="commuter_N_S.6" depart="68.00" departLane="754598165#2_0" departPos="5.10" departSpeed="0.00" departDelay="2.00" arrival="135.00" arrivalLane="757092064#1_1" arrivalPos="81.46" arrivalSpeed="19.80" duration="67.00" routeLength="213.54" waitingTime="42.00" waitingCount="1" stopTime="0.00" timeLoss="55.83" rerouteNo="0" devices="tripinfo_commuter_N_S.6" vType="car_commuter" speedFactor="0.85" vaporized=""/>
    <tripinfo id="commuter_N_S.7" depart="74.00" departLane="754598165#2_0" departPos="5.10" departSpeed="0.00" departDelay="0.00" arrival="137.00" arrivalLane="757092064#1_1" arrivalPos="81.46" arrivalSpeed="19.33" duration="63.00" routeLength="213.54" waitingTime="38.00" waitingCount="1" stopTime="0.00" timeLoss="51.58" rerouteNo="0" devices="tripinfo_commuter_N_S.7" vType="car_commuter" speedFactor="1.07" vaporized=""/>
    <tripinfo id="commuter_N_W.1" depart="71.00" departLane="754598165#2_0" departPos="5.10" departSpeed="0.00" departDelay="0.00" arrival="138.00" arrivalLane="978400303#0_3" arrivalPos="149.14" arrivalSpeed="19.27" duration="67.00" routeLength="273.05" waitingTime="40.00" waitingCount="1" stopTime="0.00" timeLoss="51.78" rerouteNo="0" devices="tripinfo_commuter_N_W.1" vType="car_commuter" speedFactor="0.97" vaporized=""/>
    <tripinfo id="commuter_N_W.2" depart="80.00" departLane="754598165#2_0" departPos="5.10" departSpeed="0.00" departDelay="2.00" arrival="140.00" arrivalLane="978400303#0_3" arrivalPos="149.14" arrivalSpeed="19.79" duration="60.00" routeLength="273.05" waitingTime="32.00" waitingCount="1" stopTime="0.00" timeLoss="44.73" rerouteNo="0" devices="tripinfo_commuter_N_W.2" vType="car_commuter" speedFactor="1.07" vaporized=""/>
    <tripinfo id="commuter_N_E.4" depart="65.00" departLane="754598165#2_0" departPos="5.10" departSpeed="0.00" departDelay="0.00" arrival="143.00" arrivalLane="563175146#1_0" arrivalPos="228.90" arrivalSpeed="19.01" duration="78.00" routeLength="331.30" waitingTime="48.00" waitingCount="1" stopTime="0.00" timeLoss="59.97" rerouteNo="0" devices="tripinfo_commuter_N_E.4" vType="car_commuter" speedFactor="0.99" vaporized=""/>
    <tripinfo id="bg_E_W.6" depart="117.00" departLane="749662140#0_0" departPos="5.10" departSpeed="0.00" departDelay="0.00" arrival="152.00" arrivalLane="978400303#0_0" arrivalPos="149.14" arrivalSpeed="19.14" duration="35.00" routeLength="297.03" waitingTime="6.00" waitingCount="1" stopTime="0.00" timeLoss="19.22" rerouteNo="0" devices="tripinfo_bg_E_W.6" vType="car_commuter" speedFactor="0.88" vaporized=""/>
    <tripinfo id="bg_E_W.7" depart="123.00" departLane="749662140#0_0" departPos="5.10" departSpeed="0.00" departDelay="0.00" arrival="152.00" arrivalLane="978400303#0_1" arrivalPos="149.14" arrivalSpeed="19.35" duration="29.00" routeLength="297.03" waitingTime="1.00" waitingCount="1" stopTime="0.00" timeLoss="13.38" rerouteNo="0" devices="tripinfo_bg_E_W.7" vType="car_commuter" speedFactor="0.87" vaporized=""/>
    <tripinfo id="bg_E_W.8" depart="136.00" departLane="749662140#0_0" departPos="5.10" departSpeed="0.00" departDelay="0.00" arrival="157.00" arrivalLane="978400303#0_0" arrivalPos="149.14" arrivalSpeed="18.98" duration="21.00" routeLength="297.03" waitingTime="0.00" waitingCount="0" stopTime="0.00" timeLoss="4.58" rerouteNo="0" devices="tripinfo_bg_E_W.8" vType="car_commuter" speedFactor="0.69" vaporized=""/>
    <tripinfo id="commuter_N_S.8" depart="77.00" departLane="754598165#2_0" departPos="5.10" departSpeed="0.00" departDelay="1.00" arrival="161.00" arrivalLane="757092064#1_0" arrivalPos="81.46" arrivalSpeed="19.21" duration="84.00" routeLength="213.54" waitingTime="58.00" waitingCount="2" stopTime="0.00" timeLoss="73.25" rerouteNo="0" devices="tripinfo_commuter_N_S.8" vType="car_commuter" speedFactor="0.85" vaporized=""/>
    <tripinfo id="commuter_N_S.9" depart="81.00" departLane="754598165#2_0" departPos="5.10" departSpeed="0.00" departDelay="2.00" arrival="162.00" arrivalLane="757092064#1_1" arrivalPos="81.46" arrivalSpeed="19.55" duration="81.00" routeLength="213.54" waitingTime="52.00" waitingCount="2" stopTime="0.00" timeLoss="69.83" rerouteNo="0" devices="tripinfo_commuter_N_S.9" vType="car_commuter" speedFactor="0.97" vaporized=""/>
    <tripinfo id="commuter_N_W.3" depart="87.00" departLane="754598165#2_0" departPos="5.10" departSpeed="0.00" departDelay="0.00" arrival="165.00" arrivalLane="978400303#0_3" arrivalPos="149.14" arrivalSpeed="19.60" duration="78.00" routeLength="273.05" waitingTime="46.00" waitingCount="2" stopTime="0.00" timeLoss="62.69" rerouteNo="0" devices="tripinfo_commuter_N_W.3" vType="car_commuter" speedFactor="1.05" vaporized=""/>
    <tripinfo id="commuter_N_S.11" depart="93.00" departLane="754598165#2_0" departPos="5.10" departSpeed="0.00" departDelay="0.00" arrival="180.00" arrivalLane="757092064#1_1" arrivalPos="81.46" arrivalSpeed="19.28" duration="87.00" routeLength="213.54" waitingTime="57.00" waitingCount="3" stopTime="0.00" timeLoss="76.17" rerouteNo="0" devices="tripinfo_commuter_N_S.11" vType="car_commuter" speedFactor="0.89" vaporized=""/>
    <tripinfo id="commuter_N_S.10" depart="84.00" departLane="754598165#2_0" departPos="5.10" departSpeed="0.00" departDelay="4.00" arrival="181.00" arrivalLane="757092064#1_0" arrivalPos="81.46" arrivalSpeed="19.31" duration="97.00" routeLength="213.54" waitingTime="65.00" waitingCount="3" stopTime="0.00" timeLoss="85.89" rerouteNo="0" devices="tripinfo_commuter_N_S.10" vType="car_commuter" speedFactor="0.97" vaporized=""/>
    <tripinfo id="commuter_N_S.12" depart="97.00" departLane="754598165#2_0" departPos="5.10" departSpeed="0.00" departDelay="0.00" arrival="182.00" arrivalLane="757092064#1_1" arrivalPos="81.46" arrivalSpeed="19.42" duration="85.00" routeLength="213.54" waitingTime="53.00" waitingCount="3" stopTime="0.00" timeLoss="73.77" rerouteNo="0" devices="tripinfo_commuter_N_S.12" vType="car_commuter" speedFactor="0.93" vaporized=""/>
    <tripinfo id="commuter_N_W.4" depart="95.00" departLane="754598165#2_0" departPos="5.10" departSpeed="0.00" departDelay="2.00" arrival="184.00" arrivalLane="978400303#0_3" arrivalPos="149.14" arrivalSpeed="19.72" duration="89.00" routeLength="273.05" waitingTime="52.00" waitingCount="3" stopTime="0.00" timeLoss="73.52" rerouteNo="0" devices="tripinfo_commuter_N_W.4" vType="car_commuter" speedFactor="1.00" vaporized=""/>
    <tripinfo id="commuter_N_S.14" depart="107.00" departLane="754598165#2_0" departPos="5.10" departSpeed="0.00" departDelay="0.00" arrival="184.00" arrivalLane="757092064#1_1" arrivalPos="81.46" arrivalSpeed="19.58" duration="77.00" routeLength="213.54" waitingTime="44.00" waitingCount="3" stopTime="0.00" timeLoss="65.71" rerouteNo="0" devices="tripinfo_commuter_N_S.14" vType="car_commuter" speedFactor="1.07" vaporized=""/>
    <tripinfo id="commuter_N_S.16" depart="119.00" departLane="754598165#2_0" departPos="5.10" departSpeed="0.00" departDelay="1.00" arrival="184.00" arrivalLane="757092064#1_2" arrivalPos="81.46" arrivalSpeed="19.62" duration="65.00" routeLength="213.54" waitingTime="31.00" waitingCount="3" stopTime="0.00" timeLoss="53.63" rerouteNo="0" devices="tripinfo_commuter_N_S.16" vType="car_commuter" speedFactor="0.93" vaporized=""/>
    <tripinfo id="commuter_N_S.13" depart="103.00" departLane="754598165#2_0" departPos="5.10" departSpeed="0.00" departDelay="0.00" arrival="185.00" arrivalLane="757092064#1_0" arrivalPos="81.46" arrivalSpeed="18.81" duration="82.00" routeLength="213.54" waitingTime="46.00" waitingCount="3" stopTime="0.00" timeLoss="70.61" rerouteNo="0" devices="tripinfo_commuter_N_S.13" vType="car_commuter" speedFactor="1.18" vaporized=""/>
    <tripinfo id="commuter_N_S.17" depart="134.00" departLane="754598165#2_0" departPos="5.10" departSpeed="0.00" departDelay="0.00" arrival="186.00" arrivalLane="757092064#1_1" arrivalPos="81.46" arrivalSpeed="19.93" duration="52.00" routeLength="213.54" waitingTime="23.00" waitingCount="2" stopTime="0.00" timeLoss="41.18" rerouteNo="0" devices="tripinfo_commuter_N_S.17" vType="car_commuter" speedFactor="0.97" vaporized=""/>
    <tripinfo id="commuter_N_W.5" depart="106.00" departLane="754598165#2_0" departPos="5.10" departSpeed="0.00" departDelay="1.00" arrival="187.00" arrivalLane="978400303#0_3" arrivalPos="149.14" arrivalSpeed="19.78" duration="81.00" routeLength="273.05" waitingTime="42.00" waitingCount="3" stopTime="0.00" timeLoss="64.77" rerouteNo="0" devices="tripinfo_commuter_N_W.5" vType="car_commuter" speedFactor="0.85" vaporized=""/>
    <tripinfo id="commuter_N_S.15" depart="113.00" departLane="754598165#2_0" departPos="5.10" departSpeed="0.00" departDelay="0.00" arrival="187.00" arrivalLane="757092064#1_0" arrivalPos="81.46" arrivalSpeed="19.27" duration="74.00" routeLength="213.54" waitingTime="35.00" waitingCount="3" stopTime="0.00" timeLoss="62.38" rerouteNo="0" devices="tripinfo_commuter_N_S.15" vType="car_commuter" speedFactor="1.11" vaporized=""/>
    <tripinfo id="commuter_N_E.5" depart="88.00" departLane="754598165#2_0" departPos="5.10" departSpeed="0.00" departDelay="0.00" arrival="189.00" arrivalLane="563175146#1_0" arrivalPos="228.90" arrivalSpeed="19.12" duration="101.00" routeLength="331.30" waitingTime="61.00" waitingCount="3" stopTime="0.00" timeLoss="83.11" rerouteNo="0" devices="tripinfo_commuter_N_E.5" vType="car_commuter" speedFactor="1.08" vaporized=""/>
    <tripinfo id="commuter_N_W.6" depart="121.00" departLane="754598165#2_0" departPos="5.10" departSpeed="0.00" departDelay="0.00" arrival="189.00" arrivalLane="978400303#0_3" arrivalPos="149.14" arrivalSpeed="19.77" duration="68.00" routeLength="273.05" waitingTime="29.00" waitingCount="3" stopTime="0.00" timeLoss="53.12" rerouteNo="0" devices="tripinfo_commuter_N_W.6" vType="car_commuter" speedFactor="1.08" vaporized=""/>
    <tripinfo id="commuter_N_W.7" depart="138.00" departLane="754598165#2_0" departPos="5.10" departSpeed="0.00" departDelay="3.00" arrival="193.00" arrivalLane="978400303#0_3" arrivalPos="149.14" arrivalSpeed="19.73" duration="55.00" routeLength="273.05" waitingTime="20.00" waitingCount="2" stopTime="0.00" timeLoss="38.42" rerouteNo="0" devices="tripinfo_commuter_N_W.7" vType="car_commuter" speedFactor="0.90" vaporized=""/>
    <tripinfo id="bg_E_N.1" depart="161.00" departLane="749662140#0_0" departPos="5.10" departSpeed="0.00" departDelay="0.00" arrival="197.00" arrivalLane="749988360#0_2" arrivalPos="93.21" arrivalSpeed="19.02" duration="36.00" routeLength="241.59" waitingTime="11.00" waitingCount="1" stopTime="0.00" timeLoss="22.90" rerouteNo="0" devices="tripinfo_bg_E_N.1" vType="car_commuter" speedFactor="0.86" vaporized=""/>
    <tripinfo id="bg_E_N.2" depart="179.00" departLane="749662140#0_0" departPos="5.10" departSpeed="0.00" departDelay="0.00" arrival="199.00" arrivalLane="749988360#0_2" arrivalPos="93.21" arrivalSpeed="19.19" duration="20.00" routeLength="241.59" waitingTime="0.00" waitingCount="0" stopTime="0.00" timeLoss="6.63" rerouteNo="0" devices="tripinfo_bg_E_N.2" vType="car_commuter" speedFactor="0.85" vaporized=""/>
    <tripinfo id="bg_E_W.9" depart="173.00" departLane="749662140#0_0" departPos="5.10" departSpeed="0.00" departDelay="0.00" arrival="200.00" arrivalLane="978400303#0_0" arrivalPos="149.14" arrivalSpeed="19.25" duration="27.00" routeLength="297.03" waitingTime="1.00" waitingCount="1" stopTime="0.00" timeLoss="12.01" rerouteNo="0" devices="tripinfo_bg_E_W.9" vType="car_commuter" speedFactor="0.81" vaporized=""/>
    <tripinfo id="bg_E_N.3" depart="180.00" departLane="749662140#0_0" departPos="5.10" departSpeed="0.00" departDelay="0.00" arrival="201.00" arrivalLane="749988360#0_2" arrivalPos="93.21" arrivalSpeed="19.76" duration="21.00" routeLength="241.59" waitingTime="0.00" waitingCount="0" stopTime="0.00" timeLoss="7.41" rerouteNo="0" devices="tripinfo_bg_E_N.3" vType="car_commuter" speedFactor="0.92" vaporized=""/>
    <tripinfo id="bg_E_S.1" depart="183.00" departLane="749662140#0_0" departPos="5.10" departSpeed="0.00" departDelay="0.00" arrival="201.00" arrivalLane="757092064#1_0" arrivalPos="81.46" arrivalSpeed="19.51" duration="18.00" routeLength="177.43" waitingTime="0.00" waitingCount="0" stopTime="0.00" timeLoss="7.68" rerouteNo="0" devices="tripinfo_bg_E_S.1" vType="car_commuter" speedFactor="1.10" vaporized=""/>
    <tripinfo id="commuter_N_S.18" depart="135.00" departLane="754598165#2_0" departPos="5.10" departSpeed="0.00" departDelay="0.00" arrival="206.00" arrivalLane="757092064#1_0" arrivalPos="81.46" arrivalSpeed="19.51" duration="71.00" routeLength="213.54" waitingTime="36.00" waitingCount="3" stopTime="0.00" timeLoss="59.77" rerouteNo="0" devices="tripinfo_commuter_N_S.18" vType="car_commuter" speedFactor="1.03" vaporized=""/>
    <tripinfo id="commuter_N_S.22" depart="156.00" departLane="754598165#2_0" departPos="5.10" departSpeed="0.00" departDelay="2.00" arrival="206.00" arrivalLane="757092064#1_2" arrivalPos="81.46" arrivalSpeed="18.71" duration="50.00" routeLength="213.54" waitingTime="22.00" waitingCount="2" stopTime="0.00" timeLoss="38.97" rerouteNo="0" devices="tripinfo_commuter_N_S.22" vType="car_commuter" speedFactor="1.07" vaporized=""/>
    <tripinfo id="commuter_N_S.19" depart="139.00" departLane="754598165#2_0" departPos="5.10" departSpeed="0.00" departDelay="3.00" arrival="208.00" arrivalLane="757092064#1_0" arrivalPos="81.46" arrivalSpeed="19.68" duration="69.00" routeLength="213.54" waitingTime="35.00" waitingCount="3" stopTime="0.00" timeLoss="57.42" rerouteNo="0" devices="tripinfo_commuter_N_S.19" vType="car_commuter" speedFactor="0.98" vaporized=""/>
    <tripinfo id="commuter_N_S.20" depart="150.00" departLane="754598165#2_0" departPos="5.10" departSpeed="0.00" departDelay="0.00" arrival="208.00" arrivalLane="757092064#1_1" arrivalPos="81.46" arrivalSpeed="19.56" duration="58.00" routeLength="213.54" waitingTime="24.00" waitingCount="2" stopTime="0.00" timeLoss="47.11" rerouteNo="0" devices="tripinfo_commuter_N_S.20" vType="car_commuter" speedFactor="1.07" vaporized=""/>
    <tripinfo id="commuter_N_S.21" depart="153.00" departLane="754598165#2_0" departPos="5.10" departSpeed="0.00" departDelay="0.00" arrival="210.00" arrivalLane="757092064#1_0" arrivalPos="81.46" arrivalSpeed="18.90" duration="57.00" routeLength="213.54" waitingTime="22.00" waitingCount="2" stopTime="0.00" timeLoss="45.41" rerouteNo="0" devices="tripinfo_commuter_N_S.21" vType="car_commuter" speedFactor="0.86" vaporized=""/>
    <tripinfo id="commuter_N_S.23" depart="166.00" departLane="754598165#2_0" departPos="5.10" departSpeed="0.00" departDelay="2.00" arrival="210.00" arrivalLane="757092064#1_1" arrivalPos="81.46" arrivalSpeed="19.97" duration="44.00" routeLength="213.54" waitingTime="11.00" waitingCount="1" stopTime="0.00" timeLoss="32.63" rerouteNo="0" devices="tripinfo_commuter_N_S.23" vType="car_commuter" speedFactor="1.02" vaporized=""/>
    <tripinfo id="commuter_N_S.24" depart="180.00" departLane="754598165#2_0" departPos="5.10" departSpeed="0.00" departDelay="10.00" arrival="210.00" arrivalLane="757092064#1_2" arrivalPos="81.46" arrivalSpeed="19.20" duration="30.00" routeLength="213.54" waitingTime="4.00" waitingCount="1" stopTime="0.00" timeLoss="18.73" rerouteNo="0" devices="tripinfo_commuter_N_S.24" vType="car_commuter" speedFactor="0.80" vaporized=""/>
    <tripinfo id="commuter_N_S.26" depart="190.00" departLane="754598165#2_0" departPos="5.10" departSpeed="0.00" departDelay="13.00" arrival="211.00" arrivalLane="757092064#1_2" arrivalPos="81.46" arrivalSpeed="19.03" duration="21.00" routeLength="213.54" waitingTime="0.00" waitingCount="0" stopTime="0.00" timeLoss="10.21" rerouteNo="0" devices="tripinfo_commuter_N_S.26" vType="car_commuter" speedFactor="1.03" vaporized=""/>
    <tripinfo id="commuter_N_E.6" depart="116.00" departLane="754598165#2_0" departPos="5.10" departSpeed="0.00" departDelay="0.00" arrival="212.00" arrivalLane="563175146#1_0" arrivalPos="228.90" arrivalSpeed="18.97" duration="96.00" routeLength="331.30" waitingTime="49.00" waitingCount="4" stopTime="0.00" timeLoss="78.37" rerouteNo="0" devices="tripinfo_commuter_N_E.6" vType="car_commuter" speedFactor="0.98" vaporized=""/>
    <tripinfo id="commuter_N_W.8" depart="159.00" departLane="754598165#2_0" departPos="5.10" departSpeed="0.00" departDelay="0.00" arrival="212.00" arrivalLane="978400303#0_3" arrivalPos="149.14" arrivalSpeed="19.76" duration="53.00" routeLength="273.05" waitingTime="20.00" waitingCount="2" stopTime="0.00" timeLoss="37.48" rerouteNo="0" devices="tripinfo_commuter_N_W.8" vType="car_commuter" speedFactor="1.00" vaporized=""/>
    <tripinfo id="commuter_N_S.25" depart="183.00" departLane="754598165#2_0" departPos="5.10" departSpeed="0.00" departDelay="11.00" arrival="212.00" arrivalLane="757092064#1_1" arrivalPos="81.46" arrivalSpeed="19.79" duration="29.00" routeLength="213.54" waitingTime="4.00" waitingCount="1" stopTime="0.00" timeLoss="17.96" rerouteNo="0" devices="tripinfo_commuter_N_S.25" vType="car_commuter" speedFactor="1.00" vaporized=""/>
    <tripinfo id="commuter_N_S.28" depart="195.00" departLane="754598165#2_0" departPos="5.10" departSpeed="0.00" departDelay="16.00" arrival="213.00" arrivalLane="757092064#1_2" arrivalPos="81.46" arrivalSpeed="18.74" duration="18.00" routeLength="213.54" waitingTime="0.00" waitingCount="0" stopTime="0.00" timeLoss="6.83" rerouteNo="0" devices="tripinfo_commuter_N_S.28" vType="car_commuter" speedFactor="0.99" vaporized=""/>
    <tripinfo id="commuter_N_S.27" depart="192.00" departLane="754598165#2_0" departPos="5.10" departSpeed="0.00" departDelay="14.00" arrival="214.00" arrivalLane="757092064#1_1" arrivalPos="81.46" arrivalSpeed="19.49" duration="22.00" routeLength="213.54" waitingTime="0.00" waitingCount="0" stopTime="0.00" timeLoss="10.52" rerouteNo="0" devices="tripinfo_commuter_N_S.27" vType="car_commuter" speedFactor="0.95" vaporized=""/>
    <tripinfo id="commuter_N_E.7" depart="163.00" departLane="754598165#2_0" departPos="5.10" departSpeed="0.00" departDelay="0.00" arrival="217.00" arrivalLane="563175146#1_0" arrivalPos="228.90" arrivalSpeed="19.53" duration="54.00" routeLength="331.30" waitingTime="19.00" waitingCount="2" stopTime="0.00" timeLoss="36.36" rerouteNo="0" devices="tripinfo_commuter_N_E.7" vType="car_commuter" speedFactor="1.25" vaporized=""/>
    <tripinfo id="commuter_N_S.29" depart="199.00" departLane="754598165#2_0" departPos="5.10" departSpeed="0.00" departDelay="15.00" arrival="217.00" arrivalLane="757092064#1_0" arrivalPos="81.46" arrivalSpeed="19.12" duration="18.00" routeLength="213.54" waitingTime="0.00" waitingCount="0" stopTime="0.00" timeLoss="6.75" rerouteNo="0" devices="tripinfo_commuter_N_S.29" vType="car_commuter" speedFactor="0.88" vaporized=""/>
    <tripinfo id="commuter_N_S.30" depart="202.00" departLane="754598165#2_0" departPos="5.10" departSpeed="0.00" departDelay="16.00" arrival="218.00" arrivalLane="757092064#1_0" arrivalPos="81.46" arrivalSpeed="18.92" duration="16.00" routeLength="213.54" waitingTime="0.00" waitingCount="0" stopTime="0.00" timeLoss="5.28" rerouteNo="0" devices="tripinfo_commuter_N_S.30" vType="car_commuter" speedFactor="1.06" vaporized=""/>
    <tripinfo id="commuter_N_E.8" depart="168.00" departLane="754598165#2_0" departPos="5.10" departSpeed="0.00" departDelay="4.00" arrival="219.00" arrivalLane="563175146#1_0" arrivalPos="228.90" arrivalSpeed="19.90" duration="51.00" routeLength="331.30" waitingTime="13.00" waitingCount="2" stopTime="0.00" timeLoss="33.45" rerouteNo="0" devices="tripinfo_commuter_N_E.8" vType="car_commuter" speedFactor="1.19" vaporized=""/>
    <tripinfo id="commuter_N_W.9" depart="198.00" departLane="754598165#2_0" departPos="5.10" departSpeed="0.00" departDelay="16.00" arrival="219.00" arrivalLane="978400303#0_3" arrivalPos="149.14" arrivalSpeed="19.28" duration="21.00" routeLength="273.05" waitingTime="0.00" waitingCount="0" stopTime="0.00" timeLoss="5.86" rerouteNo="0" devices="tripinfo_commuter_N_W.9" vType="car_commuter" speedFactor="1.00" vaporized=""/>
    <tripinfo id="commuter_N_E.9" depart="187.00" departLane="754598165#2_0" departPos="5.10" departSpeed="0.00" departDelay="12.00" arrival="223.00" arrivalLane="563175146#1_0" arrivalPos="228.90" arrivalSpeed="19.41" duration="36.00" routeLength="331.30" waitingTime="6.00" waitingCount="1" stopTime="0.00" timeLoss="16.99" rerouteNo="0" devices="tripinfo_commuter_N_E.9" vType="car_commuter" speedFactor="0.88" vaporized=""/>