<?xml version="1.0" encoding="UTF-8"?>

<!-- generated on 2025-06-03 02:08:02 by Eclipse SUMO sumo Version 1.22.0
<sumoConfiguration xmlns:xsi="http://www.w3.org/2001/XMLSchema-instance" xsi:noNamespaceSchemaLocation="http://sumo.dlr.de/xsd/sumoConfiguration.xsd">

    <input>
        <net-file value="osm.net.xml"/>
        <route-files value="route.rou.xml"/>
        <additional-files value="osm.poly.xml.gz"/>
    </input>

    <output>
        <summary-output value="summary_eval_offline_4act_ep1.xml"/>
        <tripinfo-output value="tripinfo_eval_offline_4act_ep1.xml"/>
    </output>

    <time>
        <begin value="0"/>
        <end value="3600"/>
    </time>

    <processing>
        <time-to-teleport value="-1"/>
        <waiting-time-memory value="1000"/>
    </processing>

    <report>
        <verbose value="true"/>
        <duration-log.statistics value="true"/>
        <no-step-log value="true"/>
    </report>

    <traci_server>
        <remote-port value="62842"/>
    </traci_server>

    <random_number>
        <seed value="11644"/>
    </random_number>

</sumoConfiguration>
-->

<tripinfos xmlns:xsi="http://www.w3.org/2001/XMLSchema-instance" xsi:noNamespaceSchemaLocation="http://sumo.dlr.de/xsd/tripinfo_file.xsd">
    <tripinfo id="bg_E_W.0" depart="24.00" departLane="749662140#0_0" departPos="5.10" departSpeed="0.00" departDelay="0.00" arrival="43.00" arrivalLane="978400303#0_0" arrivalPos="149.14" arrivalSpeed="19.24" duration="19.00" routeLength="297.03" waitingTime="0.00" waitingCount="0" stopTime="0.00" timeLoss="4.07" rerouteNo="0" devices="tripinfo_bg_E_W.0" vType="car_commuter" speedFactor="0.99" vaporized=""/>
    <tripinfo id="commuter_N_S.1" depart="3.00" departLane="754598165#2_0" departPos="5.10" departSpeed="0.00" departDelay="0.00" arrival="59.00" arrivalLane="757092064#1_1" arrivalPos="81.46" arrivalSpeed="19.38" duration="56.00" routeLength="213.54" waitingTime="32.00" waitingCount="1" stopTime="0.00" timeLoss="45.31" rerouteNo="0" devices="tripinfo_commuter_N_S.1" vType="car_commuter" speedFactor="1.14" vaporized=""/>
    <tripinfo id="commuter_N_S.0" depart="0.00" departLane="754598165#2_0" departPos="5.10" departSpeed="0.00" departDelay="0.00" arrival="60.00" arrivalLane="757092064#1_0" arrivalPos="81.46" arrivalSpeed="19.29" duration="60.00" routeLength="213.54" waitingTime="36.00" waitingCount="1" stopTime="0.00" timeLoss="48.49" rerouteNo="0" devices="tripinfo_commuter_N_S.0" vType="car_commuter" speedFactor="0.92" vaporized=""/>
    <tripinfo id="commuter_N_S.4" depart="22.00" departLane="754598165#2_0" departPos="5.10" departSpeed="0.00" departDelay="0.00" arrival="60.00" arrivalLane="757092064#1_2" arrivalPos="81.46" arrivalSpeed="19.56" duration="38.00" routeLength="213.54" waitingTime="14.00" waitingCount="1" stopTime="0.00" timeLoss="26.66" rerouteNo="0" devices="tripinfo_commuter_N_S.4" vType="car_commuter" speedFactor="0.88" vaporized=""/>
    <tripinfo id="commuter_N_W.0" depart="9.00" departLane="754598165#2_0" departPos="5.10" departSpeed="0.00" departDelay="0.00" arrival="61.00" arrivalLane="978400303#0_3" arrivalPos="149.14" arrivalSpeed="18.91" duration="52.00" routeLength="273.05" waitingTime="26.00" waitingCount="1" stopTime="0.00" timeLoss="37.16" rerouteNo="0" devices="tripinfo_commuter_N_W.0" vType="car_commuter" speedFactor="1.05" vaporized=""/>
    <tripinfo id="commuter_N_S.2" depart="14.00" departLane="754598165#2_0" departPos="5.10" departSpeed="0.00" departDelay="0.00" arrival="61.00" arrivalLane="757092064#1_1" arrivalPos="81.46" arrivalSpeed="19.57" duration="47.00" routeLength="213.54" waitingTime="24.00" waitingCount="1" stopTime="0.00" timeLoss="36.28" rerouteNo="0" devices="tripinfo_commuter_N_S.2" vType="car_commuter" speedFactor="0.98" vaporized=""/>
    <tripinfo id="commuter_N_S.3" depart="17.00" departLane="754598165#2_0" departPos="5.10" departSpeed="0.00" departDelay="0.00" arrival="63.00" arrivalLane="757092064#1_0" arrivalPos="81.46" arrivalSpeed="19.85" duration="46.00" routeLength="213.54" waitingTime="22.00" waitingCount="1" stopTime="0.00" timeLoss="34.55" rerouteNo="0" devices="tripinfo_commuter_N_S.3" vType="car_commuter" speedFactor="0.86" vaporized=""/>
    <tripinfo id="commuter_N_S.5" depart="31.00" departLane="754598165#2_0" departPos="5.10" departSpeed="0.00" departDelay="0.00" arrival="63.00" arrivalLane="757092064#1_1" arrivalPos="81.46" arrivalSpeed="19.00" duration="32.00" routeLength="213.54" waitingTime="8.00" waitingCount="1" stopTime="0.00" timeLoss="21.14" rerouteNo="0" devices="tripinfo_commuter_N_S.5" vType="car_commuter" speedFactor="1.17" vaporized=""/>
    <tripinfo id="commuter_N_S.8" depart="44.00" departLane="754598165#2_0" departPos="5.10" departSpeed="0.00" departDelay="2.00" arrival="64.00" arrivalLane="757092064#1_2" arrivalPos="81.46" arrivalSpeed="18.75" duration="20.00" routeLength="213.54" waitingTime="0.00" waitingCount="0" stopTime="0.00" timeLoss="9.08" rerouteNo="0" devices="tripinfo_commuter_N_S.8" vType="car_commuter" speedFactor="1.05" vaporized=""/>
    <tripinfo id="commuter_N_S.6" depart="35.00" departLane="754598165#2_0" departPos="5.10" departSpeed="0.00" departDelay="2.00" arrival="65.00" arrivalLane="757092064#1_0" arrivalPos="81.46" arrivalSpeed="19.03" duration="30.00" routeLength="213.54" waitingTime="5.00" waitingCount="1" stopTime="0.00" timeLoss="18.45" rerouteNo="0" devices="tripinfo_commuter_N_S.6" vType="car_commuter" speedFactor="1.00" vaporized=""/>
    <tripinfo id="commuter_N_S.7" depart="38.00" departLane="754598165#2_0" departPos="5.10" departSpeed="0.00" departDelay="1.00" arrival="65.00" arrivalLane="757092064#1_1" arrivalPos="81.46" arrivalSpeed="18.99" duration="27.00" routeLength="213.54" waitingTime="3.00" waitingCount="1" stopTime="0.00" timeLoss="15.85" rerouteNo="0" devices="tripinfo_commuter_N_S.7" vType="car_commuter" speedFactor="1.05" vaporized=""/>
    <tripinfo id="commuter_N_S.9" depart="47.00" departLane="754598165#2_0" departPos="5.10" departSpeed="0.00" departDelay="2.00" arrival="66.00" arrivalLane="757092064#1_2" arrivalPos="81.46" arrivalSpeed="19.43" duration="19.00" routeLength="213.54" waitingTime="0.00" waitingCount="0" stopTime="0.00" timeLoss="7.71" rerouteNo="0" devices="tripinfo_commuter_N_S.9" vType="car_commuter" speedFactor="0.94" vaporized=""/>
    <tripinfo id="commuter_N_W.1" depart="34.00" departLane="754598165#2_0" departPos="5.10" departSpeed="0.00" departDelay="2.00" arrival="67.00" arrivalLane="978400303#0_3" arrivalPos="149.14" arrivalSpeed="19.49" duration="33.00" routeLength="273.05" waitingTime="4.00" waitingCount="1" stopTime="0.00" timeLoss="16.95" rerouteNo="0" devices="tripinfo_commuter_N_W.1" vType="car_commuter" speedFactor="0.93" vaporized=""/>
    <tripinfo id="commuter_N_E.0" depart="6.00" departLane="754598165#2_0" departPos="5.10" departSpeed="0.00" departDelay="2.00" arrival="68.00" arrivalLane="563175146#1_0" arrivalPos="228.90" arrivalSpeed="19.88" duration="62.00" routeLength="331.30" waitingTime="31.00" waitingCount="1" stopTime="0.00" timeLoss="43.52" rerouteNo="0" devices="tripinfo_commuter_N_E.0" vType="car_commuter" speedFactor="0.91" vaporized=""/>
    <tripinfo id="bg_E_W.1" depart="56.00" departLane="749662140#0_0" departPos="5.10" departSpeed="0.00" departDelay="0.00" arrival="77.00" arrivalLane="978400303#0_0" arrivalPos="149.14" arrivalSpeed="19.33" duration="21.00" routeLength="297.03" waitingTime="0.00" waitingCount="0" stopTime="0.00" timeLoss="5.45" rerouteNo="0" devices="tripinfo_bg_E_W.1" vType="car_commuter" speedFactor="1.23" vaporized=""/>
    <tripinfo id="commuter_N_S.10" depart="50.00" departLane="754598165#2_0" departPos="5.10" departSpeed="0.00" departDelay="3.00" arrival="175.00" arrivalLane="757092064#1_1" arrivalPos="81.46" arrivalSpeed="20.00" duration="125.00" routeLength="213.54" waitingTime="102.00" waitingCount="1" stopTime="0.00" timeLoss="114.22" rerouteNo="0" devices="tripinfo_commuter_N_S.10" vType="car_commuter" speedFactor="0.97" vaporized=""/>
    <tripinfo id="commuter_N_S.12" depart="55.00" departLane="754598165#2_0" departPos="5.10" departSpeed="0.00" departDelay="3.00" arrival="176.00" arrivalLane="757092064#1_2" arrivalPos="81.46" arrivalSpeed="19.47" duration="121.00" routeLength="213.54" waitingTime="95.00" waitingCount="1" stopTime="0.00" timeLoss="109.69" rerouteNo="0" devices="tripinfo_commuter_N_S.12" vType="car_commuter" speedFactor="1.02" vaporized=""/>
    <tripinfo id="commuter_N_S.13" depart="61.00" departLane="754598165#2_0" departPos="5.10" departSpeed="0.00" departDelay="7.00" arrival="177.00" arrivalLane="757092064#1_1" arrivalPos="81.46" arrivalSpeed="18.77" duration="116.00" routeLength="213.54" waitingTime="94.00" waitingCount="2" stopTime="0.00" timeLoss="104.94" rerouteNo="0" devices="tripinfo_commuter_N_S.13" vType="car_commuter" speedFactor="0.90" vaporized=""/>
    <tripinfo id="commuter_N_S.14" depart="65.00" departLane="754598165#2_0" departPos="5.10" departSpeed="0.00" departDelay="0.00" arrival="177.00" arrivalLane="757092064#1_2" arrivalPos="81.46" arrivalSpeed="19.79" duration="112.00" routeLength="213.54" waitingTime="89.00" waitingCount="1" stopTime="0.00" timeLoss="101.22" rerouteNo="0" devices="tripinfo_commuter_N_S.14" vType="car_commuter" speedFactor="1.07" vaporized=""/>
    <tripinfo id="commuter_N_S.11" depart="53.00" departLane="754598165#2_0" departPos="5.10" departSpeed="0.00" departDelay="5.00" arrival="178.00" arrivalLane="757092064#1_0" arrivalPos="81.46" arrivalSpeed="19.42" duration="125.00" routeLength="213.54" waitingTime="101.00" waitingCount="1" stopTime="0.00" timeLoss="113.43" rerouteNo="0" devices="tripinfo_commuter_N_S.11" vType="car_commuter" speedFactor="0.93" vaporized=""/>
    <tripinfo id="commuter_N_S.15" depart="68.00" departLane="754598165#2_0" departPos="5.10" departSpeed="0.00" departDelay="2.00" arrival="179.00" arrivalLane="757092064#1_1" arrivalPos="81.46" arrivalSpeed="18.80" duration="111.00" routeLength="213.54" waitingTime="87.00" waitingCount="1" stopTime="0.00" timeLoss="100.17" rerouteNo="0" devices="tripinfo_commuter_N_S.15" vType="car_commuter" speedFactor="0.83" vaporized=""/>
    <tripinfo id="commuter_N_S.16" depart="71.00" departLane="754598165#2_0" departPos="5.10" departSpeed="0.00" departDelay="1.00" arrival="179.00" arrivalLane="757092064#1_2" arrivalPos="81.46" arrivalSpeed="19.37" duration="108.00" routeLength="213.54" waitingTime="85.00" waitingCount="1" stopTime="0.00" timeLoss="96.92" rerouteNo="0" devices="tripinfo_commuter_N_S.16" vType="car_commuter" speedFactor="0.93" vaporized=""/>
    <tripinfo id="commuter_N_S.17" depart="77.00" departLane="754598165#2_0" departPos="5.10" departSpeed="0.00" departDelay="4.00" arrival="181.00" arrivalLane="757092064#1_1" arrivalPos="81.46" arrivalSpeed="19.40" duration="104.00" routeLength="213.54" waitingTime="78.00" waitingCount="1" stopTime="0.00" timeLoss="92.81" rerouteNo="0" devices="tripinfo_commuter_N_S.17" vType="car_commuter" speedFactor="1.04" vaporized=""/>
    <tripinfo id="commuter_N_S.18" depart="80.00" departLane="754598165#2_0" departPos="5.10" departSpeed="0.00" departDelay="0.00" arrival="181.00" arrivalLane="757092064#1_2" arrivalPos="81.46" arrivalSpeed="19.26" duration="101.00" routeLength="213.54" waitingTime="79.00" waitingCount="1" stopTime="0.00" timeLoss="89.92" rerouteNo="0" devices="tripinfo_commuter_N_S.18" vType="car_commuter" speedFactor="0.81" vaporized=""/>
    <tripinfo id="commuter_N_E.1" depart="41.00" departLane="754598165#2_0" departPos="5.10" departSpeed="0.00" departDelay="2.00" arrival="182.00" arrivalLane="563175146#1_0" arrivalPos="228.90" arrivalSpeed="19.50" duration="141.00" routeLength="331.30" waitingTime="105.00" waitingCount="1" stopTime="0.00" timeLoss="123.23" rerouteNo="0" devices="tripinfo_commuter_N_E.1" vType="car_commuter" speedFactor="1.04" vaporized=""/>
    <tripinfo id="commuter_N_E.2" depart="58.00" departLane="754598165#2_0" departPos="5.10" departSpeed="0.00" departDelay="6.00" arrival="186.00" arrivalLane="563175146#1_0" arrivalPos="228.90" arrivalSpeed="19.54" duration="128.00" routeLength="331.30" waitingTime="96.00" waitingCount="1" stopTime="0.00" timeLoss="109.84" rerouteNo="0" devices="tripinfo_commuter_N_E.2" vType="car_commuter" speedFactor="0.87" vaporized=""/>
    <tripinfo id="commuter_N_W.2" depart="82.00" departLane="754598165#2_0" departPos="5.10" departSpeed="0.00" departDelay="1.00" arrival="186.00" arrivalLane="978400303#0_3" arrivalPos="149.14" arrivalSpeed="18.75" duration="104.00" routeLength="273.05" waitingTime="76.00" waitingCount="1" stopTime="0.00" timeLoss="88.98" rerouteNo="0" devices="tripinfo_commuter_N_W.2" vType="car_commuter" speedFactor="1.10" vaporized=""/>
    <tripinfo id="commuter_N_E.3" depart="74.00" departLane="754598165#2_0" departPos="5.10" departSpeed="0.00" departDelay="4.00" arrival="188.00" arrivalLane="563175146#1_0" arrivalPos="228.90" arrivalSpeed="19.35" duration="114.00" routeLength="331.30" waitingTime="83.00" waitingCount="1" stopTime="0.00" timeLoss="95.70" rerouteNo="0" devices="tripinfo_commuter_N_E.3" vType="car_commuter" speedFactor="0.94" vaporized=""/>
    <tripinfo id="bg_E_S.0" depart="93.00" departLane="749662140#0_0" departPos="5.10" departSpeed="0.00" departDelay="0.00" arrival="190.00" arrivalLane="757092064#1_0" arrivalPos="81.46" arrivalSpeed="17.92" duration="97.00" routeLength="177.43" waitingTime="75.00" waitingCount="1" stopTime="0.00" timeLoss="86.48" rerouteNo="0" devices="tripinfo_bg_E_S.0" vType="car_commuter" speedFactor="0.88" vaporized=""/>
    <tripinfo id="bg_E_S.1" depart="104.00" departLane="749662140#0_0" departPos="5.10" departSpeed="0.00" departDelay="1.00" arrival="192.00" arrivalLane="757092064#1_0" arrivalPos="81.46" arrivalSpeed="19.32" duration="88.00" routeLength="177.43" waitingTime="65.00" waitingCount="1" stopTime="0.00" timeLoss="77.23" rerouteNo="0" devices="tripinfo_bg_E_S.1" vType="car_commuter" speedFactor="0.93" vaporized=""/>
    <tripinfo id="bg_E_N.0" depart="103.00" departLane="749662140#0_0" departPos="5.10" departSpeed="0.00" departDelay="0.00" arrival="193.00" arrivalLane="749988360#0_2" arrivalPos="93.21" arrivalSpeed="18.48" duration="90.00" routeLength="241.59" waitingTime="64.00" waitingCount="1" stopTime="0.00" timeLoss="75.33" rerouteNo="0" devices="tripinfo_bg_E_N.0" vType="car_commuter" speedFactor="0.71" vaporized=""/>
    <tripinfo id="bg_E_S.2" depart="108.00" departLane="749662140#0_0" departPos="5.10" departSpeed="0.00" departDelay="0.00" arrival="194.00" arrivalLane="757092064#1_0" arrivalPos="81.46" arrivalSpeed="18.96" duration="86.00" routeLength="177.43" waitingTime="62.00" waitingCount="1" stopTime="0.00" timeLoss="75.72" rerouteNo="0" devices="tripinfo_bg_E_S.2" vType="car_commuter" speedFactor="1.10" vaporized=""/>
    <tripinfo id="bg_E_N.1" depart="116.00" departLane="749662140#0_0" departPos="5.10" departSpeed="0.00" departDelay="1.00" arrival="194.00" arrivalLane="749988360#0_2" arrivalPos="93.21" arrivalSpeed="18.92" duration="78.00" routeLength="241.59" waitingTime="52.00" waitingCount="1" stopTime="0.00" timeLoss="65.60" rerouteNo="0" devices="tripinfo_bg_E_N.1" vType="car_commuter" speedFactor="1.08" vaporized=""/>
    <tripinfo id="bg_E_W.2" depart="123.00" departLane="749662140#0_0" departPos="5.10" departSpeed="0.00" departDelay="0.00" arrival="195.00" arrivalLane="978400303#0_1" arrivalPos="149.14" arrivalSpeed="18.91" duration="72.00" routeLength="297.03" waitingTime="44.00" waitingCount="1" stopTime="0.00" timeLoss="57.04" rerouteNo="0" devices="tripinfo_bg_E_W.2" vType="car_commuter" speedFactor="0.99" vaporized=""/>
    <tripinfo id="bg_E_W.3" depart="126.00" departLane="749662140#0_0" departPos="5.10" departSpeed="0.00" departDelay="1.00" arrival="195.00" arrivalLane="978400303#0_2" arrivalPos="149.14" arrivalSpeed="19.66" duration="69.00" routeLength="297.03" waitingTime="41.00" waitingCount="1" stopTime="0.00" timeLoss="53.79" rerouteNo="0" devices="tripinfo_bg_E_W.3" vType="car_commuter" speedFactor="1.03" vaporized=""/>
    <tripinfo id="bg_E_N.2" depart="129.00" departLane="749662140#0_0" departPos="5.10" departSpeed="0.00" departDelay="3.00" arrival="196.00" arrivalLane="749988360#0_2" arrivalPos="93.21" arrivalSpeed="19.46" duration="67.00" routeLength="241.59" waitingTime="41.00" waitingCount="1" stopTime="0.00" timeLoss="54.04" rerouteNo="0" devices="tripinfo_bg_E_N.2" vType="car_commuter" speedFactor="1.05" vaporized=""/>
    <tripinfo id="bg_E_S.3" depart="113.00" departLane="749662140#0_0" departPos="5.10" departSpeed="0.00" departDelay="0.00" arrival="197.00" arrivalLane="757092064#1_0" arrivalPos="81.46" arrivalSpeed="19.06" duration="84.00" routeLength="177.43" waitingTime="59.00" waitingCount="1" stopTime="0.00" timeLoss="73.16" rerouteNo="0" devices="tripinfo_bg_E_S.3" vType="car_commuter" speedFactor="1.07" vaporized=""/>
    <tripinfo id="bg_E_W.4" depart="143.00" departLane="749662140#0_0" departPos="5.10" departSpeed="0.00" departDelay="0.00" arrival="197.00" arrivalLane="978400303#0_1" arrivalPos="149.14" arrivalSpeed="19.99" duration="54.00" routeLength="297.03" waitingTime="26.00" waitingCount="1" stopTime="0.00" timeLoss="38.74" rerouteNo="0" devices="tripinfo_bg_E_W.4" vType="car_commuter" speedFactor="1.09" vaporized=""/>
    <tripinfo id="bg_E_W.5" depart="157.00" departLane="749662140#0_0" departPos="5.10" departSpeed="0.00" departDelay="0.00" arrival="197.00" arrivalLane="978400303#0_2" arrivalPos="149.14" arrivalSpeed="19.17" duration="40.00" routeLength="297.03" waitingTime="11.00" waitingCount="1" stopTime="0.00" timeLoss="24.53" rerouteNo="0" devices="tripinfo_bg_E_W.5" vType="car_commuter" speedFactor="1.04" vaporized=""/>
    <tripinfo id="bg_E_N.3" depart="168.00" departLane="749662140#0_0" departPos="5.10" departSpeed="0.00" departDelay="0.00" arrival="197.00" arrivalLane="749988360#0_2" arrivalPos="93.21" arrivalSpeed="19.21" duration="29.00" routeLength="241.59" waitingTime="4.00" waitingCount="1" stopTime="0.00" timeLoss="16.46" rerouteNo="0" devices="tripinfo_bg_E_N.3" vType="car_commuter" speedFactor="0.98" vaporized=""/>
    <tripinfo id="bg_E_W.6" depart="161.00" departLane="749662140#0_0" departPos="5.10" departSpeed="0.00" departDelay="0.00" arrival="199.00" arrivalLane="978400303#0_1" arrivalPos="149.14" arrivalSpeed="19.90" duration="38.00" routeLength="297.03" waitingTime="9.00" waitingCount="1" stopTime="0.00" timeLoss="22.41" rerouteNo="0" devices="tripinfo_bg_E_W.6" vType="car_commuter" speedFactor="1.05" vaporized=""/>
    <tripinfo id="bg_E_W.7" depart="186.00" departLane="749662140#0_0" departPos="5.10" departSpeed="0.00" departDelay="0.00" arrival="207.00" arrivalLane="978400303#0_0" arrivalPos="149.14" arrivalSpeed="19.46" duration="21.00" routeLength="297.03" waitingTime="0.00" waitingCount="0" stopTime="0.00" timeLoss="5.27" rerouteNo="0" devices="tripinfo_bg_E_W.7" vType="car_commuter" speedFactor="0.98" vaporized=""/>
    <tripinfo id="bg_E_N.4" depart="199.00" departLane="749662140#0_0" departPos="5.10" departSpeed="0.00" departDelay="0.00" arrival="276.00" arrivalLane="749988360#0_2" arrivalPos="93.21" arrivalSpeed="19.99" duration="77.00" routeLength="241.59" waitingTime="50.00" waitingCount="1" stopTime="0.00" timeLoss="62.94" rerouteNo="0" devices="tripinfo_bg_E_N.4" vType="car_commuter" speedFactor="0.82" vaporized=""/>
    <tripinfo id="bg_E_N.5" depart="204.00" departLane="749662140#0_0" departPos="5.10" departSpeed="0.00" departDelay="0.00" arrival="277.00" arrivalLane="749988360#0_2" arrivalPos="93.21" arrivalSpeed="18.71" duration="73.00" routeLength="241.59" waitingTime="47.00" waitingCount="1" stopTime="0.00" timeLoss="60.55" rerouteNo="0" devices="tripinfo_bg_E_N.5" vType="car_commuter" speedFactor="1.08" vaporized=""/>
    <tripinfo id="bg_E_W.8" depart="236.00" departLane="749662140#0_0" departPos="5.10" departSpeed="0.00" departDelay="0.00" arrival="278.00" arrivalLane="978400303#0_0" arrivalPos="149.14" arrivalSpeed="19.53" duration="42.00" routeLength="297.03" waitingTime="15.00" waitingCount="1" stopTime="0.00" timeLoss="26.65" rerouteNo="0" devices="tripinfo_bg_E_W.8" vType="car_commuter" speedFactor="1.11" vaporized=""/>
    <tripinfo id="commuter_N_S.19" depart="83.00" departLane="754598165#2_0" departPos="5.10" departSpeed="0.00" departDelay="1.00" arrival="323.00" arrivalLane="757092064#1_0" arrivalPos="81.46" arrivalSpeed="18.77" duration="240.00" routeLength="213.54" waitingTime="212.00" waitingCount="2" stopTime="0.00" timeLoss="228.83" rerouteNo="0" devices="tripinfo_commuter_N_S.19" vType="car_commuter" speedFactor="1.02" vaporized=""/>
    <tripinfo id="commuter_N_S.20" depart="87.00" departLane="754598165#2_0" departPos="5.10" departSpeed="0.00" departDelay="0.00" arrival="323.00" arrivalLane="757092064#1_1" arrivalPos="81.46" arrivalSpeed="19.75" duration="236.00" routeLength="213.54" waitingTime="208.00" waitingCount="2" stopTime="0.00" timeLoss="224.49" rerouteNo="0" devices="tripinfo_commuter_N_S.20" vType="car_commuter" speedFactor="0.84" vaporized=""/>
    <tripinfo id="commuter_N_S.22" depart="174.00" departLane="754598165#2_0" departPos="5.10" departSpeed="0.00" departDelay="72.00" arrival="324.00" arrivalLane="757092064#1_2" arrivalPos="81.46" arrivalSpeed="19.06" duration="150.00" routeLength="213.54" waitingTime="126.00" waitingCount="1" stopTime="0.00" timeLoss="139.16" rerouteNo="0" devices="tripinfo_commuter_N_S.22" vType="car_commuter" speedFactor="0.93" vaporized=""/>
    <tripinfo id="commuter_N_S.21" depart="101.00" departLane="754598165#2_0" departPos="5.10" departSpeed="0.00" departDelay="0.00" arrival="325.00" arrivalLane="757092064#1_1" arrivalPos="81.46" arrivalSpeed="19.47" duration="224.00" routeLength="213.54" waitingTime="194.00" waitingCount="2" stopTime="0.00" timeLoss="212.45" rerouteNo="0" devices="tripinfo_commuter_N_S.21" vType="car_commuter" speedFactor="1.23" vaporized=""/>
    <tripinfo id="commuter_N_S.23" depart="178.00" departLane="754598165#2_0" departPos="5.10" departSpeed="0.00" departDelay="61.00" arrival="326.00" arrivalLane="757092064#1_1" arrivalPos="81.46" arrivalSpeed="19.65" duration="148.00" routeLength="213.54" waitingTime="123.00" waitingCount="1" stopTime="0.00" timeLoss="136.91" rerouteNo="0" devices="tripinfo_commuter_N_S.23" vType="car_commuter" speedFactor="1.00" vaporized=""/>
    <tripinfo id="commuter_N_W.3" depart="93.00" departLane="754598165#2_0" departPos="5.10" departSpeed="0.00" departDelay="3.00" arrival="327.00" arrivalLane="978400303#0_3" arrivalPos="149.14" arrivalSpeed="19.52" duration="234.00" routeLength="273.05" waitingTime="201.00" waitingCount="2" stopTime="0.00" timeLoss="217.41" rerouteNo="0" devices="tripinfo_commuter_N_W.3" vType="car_commuter" speedFactor="0.88" vaporized=""/>
    <tripinfo id="commuter_N_S.24" depart="182.00" departLane="754598165#2_0" departPos="5.10" departSpeed="0.00" departDelay="60.00" arrival="328.00" arrivalLane="757092064#1_1" arrivalPos="81.46" arrivalSpeed="20.00" duration="146.00" routeLength="213.54" waitingTime="122.00" waitingCount="1" stopTime="0.00" timeLoss="135.06" rerouteNo="0" devices="tripinfo_commuter_N_S.24" vType="car_commuter" speedFactor="1.05" vaporized=""/>
    <tripinfo id="commuter_N_S.25" depart="185.00" departLane="754598165#2_0" departPos="5.10" departSpeed="0.00" departDelay="61.00" arrival="328.00" arrivalLane="757092064#1_2" arrivalPos="81.46" arrivalSpeed="19.81" duration="143.00" routeLength="213.54" waitingTime="120.00" waitingCount="1" stopTime="0.00" timeLoss="131.87" rerouteNo="0" devices="tripinfo_commuter_N_S.25" vType="car_commuter" speedFactor="0.94" vaporized=""/>
    <tripinfo id="commuter_N_E.4" depart="90.00" departLane="754598165#2_0" departPos="5.10" departSpeed="0.00" departDelay="3.00" arrival="330.00" arrivalLane="563175146#1_0" arrivalPos="228.90" arrivalSpeed="19.59" duration="240.00" routeLength="331.30" waitingTime="203.00" waitingCount="2" stopTime="0.00" timeLoss="222.54" rerouteNo="0" devices="tripinfo_commuter_N_E.4" vType="car_commuter" speedFactor="1.05" vaporized=""/>
    <tripinfo id="commuter_N_W.4" depart="181.00" departLane="754598165#2_0" departPos="5.10" departSpeed="0.00" departDelay="63.00" arrival="331.00" arrivalLane="978400303#0_3" arrivalPos="149.14" arrivalSpeed="19.39" duration="150.00" routeLength="273.05" waitingTime="122.00" waitingCount="1" stopTime="0.00" timeLoss="133.87" rerouteNo="0" devices="tripinfo_commuter_N_W.4" vType="car_commuter" speedFactor="0.96" vaporized=""/>
    <tripinfo id="commuter_N_E.5" depart="94.00" departLane="754598165#2_0" departPos="5.10" departSpeed="0.00" departDelay="2.00" arrival="332.00" arrivalLane="563175146#1_0" arrivalPos="228.90" arrivalSpeed="19.90" duration="238.00" routeLength="331.30" waitingTime="201.00" waitingCount="2" stopTime="0.00" timeLoss="220.52" rerouteNo="0" devices="tripinfo_commuter_N_E.5" vType="car_commuter" speedFactor="1.00" vaporized=""/>
    <tripinfo id="commuter_N_E.6" depart="98.00" departLane="754598165#2_0" departPos="5.10" departSpeed="0.00" departDelay="0.00" arrival="334.00" arrivalLane="563175146#1_0" arrivalPos="228.90" arrivalSpeed="19.41" duration="236.00" routeLength="331.30" waitingTime="201.00" waitingCount="2" stopTime="0.00" timeLoss="218.74" rerouteNo="0" devices="tripinfo_commuter_N_E.6" vType="car_commuter" speedFactor="1.19" vaporized=""/>
    <tripinfo id="bg_E_N.6" depart="219.00" departLane="749662140#0_0" departPos="5.10" departSpeed="0.00" departDelay="0.00" arrival="340.00" arrivalLane="749988360#0_2" arrivalPos="93.21" arrivalSpeed="19.22" duration="121.00" routeLength="241.59" waitingTime="90.00" waitingCount="2" stopTime="0.00" timeLoss="107.56" rerouteNo="0" devices="tripinfo_bg_E_N.6" vType="car_commuter" speedFactor="1.01" vaporized=""/>
    <tripinfo id="bg_E_N.7" depart="271.00" departLane="749662140#0_0" departPos="5.10" departSpeed="0.00" departDelay="0.00" arrival="341.00" arrivalLane="749988360#0_2" arrivalPos="93.21" arrivalSpeed="19.60" duration="70.00" routeLength="241.59" waitingTime="45.00" waitingCount="1" stopTime="0.00" timeLoss="56.81" rerouteNo="0" devices="tripinfo_bg_E_N.7" vType="car_commuter" speedFactor="0.89" vaporized=""/>
    <tripinfo id="bg_E_W.9" depart="266.00" departLane="749662140#0_0" departPos="5.10" departSpeed="0.00" departDelay="0.00" arrival="342.00" arrivalLane="978400303#0_0" arrivalPos="149.14" arrivalSpeed="18.92" duration="76.00" routeLength="297.03" waitingTime="49.00" waitingCount="1" stopTime="0.00" timeLoss="60.90" rerouteNo="0" devices="tripinfo_bg_E_W.9" vType="car_commuter" speedFactor="1.04" vaporized=""/>
    <tripinfo id="bg_E_W.10" depart="272.00" departLane="749662140#0_0" departPos="5.10" departSpeed="0.00" departDelay="0.00" arrival="342.00" arrivalLane="978400303#0_1" arrivalPos="149.14" arrivalSpeed="19.24" duration="70.00" routeLength="297.03" waitingTime="43.00" waitingCount="1" stopTime="0.00" timeLoss="54.49" rerouteNo="0" devices="tripinfo_bg_E_W.10" vType="car_commuter" speedFactor="1.01" vaporized=""/>
    <tripinfo id="bg_E_W.12" depart="285.00" departLane="749662140#0_0" departPos="5.10" departSpeed="0.00" departDelay="2.00" arrival="342.00" arrivalLane="978400303#0_2" arrivalPos="149.14" arrivalSpeed="19.77" duration="57.00" routeLength="297.03" waitingTime="29.00" waitingCount="1" stopTime="0.00" timeLoss="42.01" rerouteNo="0" devices="tripinfo_bg_E_W.12" vType="car_commuter" speedFactor="0.88" vaporized=""/>
    <tripinfo id="bg_E_S.4" depart="290.00" departLane="749662140#0_0" departPos="5.10" departSpeed="0.00" departDelay="0.00" arrival="342.00" arrivalLane="757092064#1_0" arrivalPos="81.46" arrivalSpeed="19.25" duration="52.00" routeLength="177.43" waitingTime="26.00" waitingCount="1" stopTime="0.00" timeLoss="41.05" rerouteNo="0" devices="tripinfo_bg_E_S.4" vType="car_commuter" speedFactor="0.95" vaporized=""/>
    <tripinfo id="bg_E_N.8" depart="303.00" departLane="749662140#0_0" departPos="5.10" departSpeed="0.00" departDelay="0.00" arrival="343.00" arrivalLane="749988360#0_2" arrivalPos="93.21" arrivalSpeed="19.22" duration="40.00" routeLength="241.59" waitingTime="14.00" waitingCount="1" stopTime="0.00" timeLoss="27.17" rerouteNo="0" devices="tripinfo_bg_E_N.8" vType="car_commuter" speedFactor="1.13" vaporized=""/>
    <tripinfo id="bg_E_W.11" depart="282.00" departLane="749662140#0_0" departPos="5.10" departSpeed="0.00" departDelay="0.00" arrival="344.00" arrivalLane="978400303#0_0" arrivalPos="149.14" arrivalSpeed="18.79" duration="62.00" routeLength="297.03" waitingTime="34.00" waitingCount="1" stopTime="0.00" timeLoss="46.69" rerouteNo="0" devices="tripinfo_bg_E_W.11" vType="car_commuter" speedFactor="1.01" vaporized=""/>
    <tripinfo id="bg_E_W.13" depart="311.00" departLane="749662140#0_0" departPos="5.10" departSpeed="0.00" departDelay="0.00" arrival="344.00" arrivalLane="978400303#0_1" arrivalPos="149.14" arrivalSpeed="19.51" duration="33.00" routeLength="297.03" waitingTime="4.00" waitingCount="1" stopTime="0.00" timeLoss="17.53" rerouteNo="0" devices="tripinfo_bg_E_W.13" vType="car_commuter" speedFactor="0.93" vaporized=""/>
    <tripinfo id="commuter_N_S.26" depart="189.00" departLane="754598165#2_0" departPos="5.10" departSpeed="0.00" departDelay="62.00" arrival="349.00" arrivalLane="757092064#1_0" arrivalPos="81.46" arrivalSpeed="19.25" duration="160.00" routeLength="213.54" waitingTime="128.00" waitingCount="2" stopTime="0.00" timeLoss="148.95" rerouteNo="0" devices="tripinfo_commuter_N_S.26" vType="car_commuter" speedFactor="0.96" vaporized=""/>