<?xml version="1.0" encoding="UTF-8"?>

<!-- generated on 2025-06-03 02:09:58 by Eclipse SUMO sumo Version 1.22.0
<sumoConfiguration xmlns:xsi="http://www.w3.org/2001/XMLSchema-instance" xsi:noNamespaceSchemaLocation="http://sumo.dlr.de/xsd/sumoConfiguration.xsd">

    <input>
        <net-file value="osm.net.xml"/>
        <route-files value="route.rou.xml"/>
        <additional-files value="osm.poly.xml.gz"/>
    </input>

    <output>
        <summary-output value="summary_eval_offline_4act_ep3.xml"/>
        <tripinfo-output value="tripinfo_eval_offline_4act_ep3.xml"/>
    </output>

    <time>
        <begin value="0"/>
        <end value="3600"/>
    </time>

    <processing>
        <time-to-teleport value="-1"/>
        <waiting-time-memory value="1000"/>
    </processing>

    <report>
        <verbose value="true"/>
        <duration-log.statistics value="true"/>
        <no-step-log value="true"/>
    </report>

    <traci_server>
        <remote-port value="62862"/>
    </traci_server>

    <random_number>
        <seed value="14812"/>
    </random_number>

</sumoConfiguration>
-->

<tripinfos xmlns:xsi="http://www.w3.org/2001/XMLSchema-instance" xsi:noNamespaceSchemaLocation="http://sumo.dlr.de/xsd/tripinfo_file.xsd">
    <tripinfo id="bg_E_N.0" depart="2.00" departLane="749662140#0_0" departPos="5.10" departSpeed="0.00" departDelay="0.00" arrival="23.00" arrivalLane="749988360#0_2" arrivalPos="93.21" arrivalSpeed="19.09" duration="21.00" routeLength="241.59" waitingTime="0.00" waitingCount="0" stopTime="0.00" timeLoss="7.80" rerouteNo="0" devices="tripinfo_bg_E_N.0" vType="car_commuter" speedFactor="1.05" vaporized=""/>
    <tripinfo id="bg_E_W.0" depart="14.00" departLane="749662140#0_0" departPos="5.10" departSpeed="0.00" departDelay="0.00" arrival="34.00" arrivalLane="978400303#0_0" arrivalPos="149.14" arrivalSpeed="19.53" duration="20.00" routeLength="297.03" waitingTime="0.00" waitingCount="0" stopTime="0.00" timeLoss="4.70" rerouteNo="0" devices="tripinfo_bg_E_W.0" vType="car_commuter" speedFactor="1.06" vaporized=""/>
    <tripinfo id="bg_E_W.1" depart="17.00" departLane="749662140#0_0" departPos="5.10" departSpeed="0.00" departDelay="2.00" arrival="37.00" arrivalLane="978400303#0_0" arrivalPos="149.14" arrivalSpeed="18.82" duration="20.00" routeLength="297.03" waitingTime="0.00" waitingCount="0" stopTime="0.00" timeLoss="5.02" rerouteNo="0" devices="tripinfo_bg_E_W.1" vType="car_commuter" speedFactor="0.86" vaporized=""/>
    <tripinfo id="bg_E_S.0" depart="41.00" departLane="749662140#0_0" departPos="5.10" departSpeed="0.00" departDelay="0.00" arrival="60.00" arrivalLane="757092064#1_0" arrivalPos="81.46" arrivalSpeed="18.27" duration="19.00" routeLength="177.43" waitingTime="0.00" waitingCount="0" stopTime="0.00" timeLoss="8.80" rerouteNo="0" devices="tripinfo_bg_E_S.0" vType="car_commuter" speedFactor="1.06" vaporized=""/>
    <tripinfo id="bg_E_S.1" depart="44.00" departLane="749662140#0_0" departPos="5.10" departSpeed="0.00" departDelay="0.00" arrival="63.00" arrivalLane="757092064#1_0" arrivalPos="81.46" arrivalSpeed="18.27" duration="19.00" routeLength="177.43" waitingTime="0.00" waitingCount="0" stopTime="0.00" timeLoss="8.99" rerouteNo="0" devices="tripinfo_bg_E_S.1" vType="car_commuter" speedFactor="1.00" vaporized=""/>
    <tripinfo id="bg_E_W.2" depart="52.00" departLane="749662140#0_0" departPos="5.10" departSpeed="0.00" departDelay="0.00" arrival="73.00" arrivalLane="978400303#0_0" arrivalPos="149.14" arrivalSpeed="19.13" duration="21.00" routeLength="297.03" waitingTime="0.00" waitingCount="0" stopTime="0.00" timeLoss="5.63" rerouteNo="0" devices="tripinfo_bg_E_W.2" vType="car_commuter" speedFactor="1.04" vaporized=""/>
    <tripinfo id="commuter_N_S.0" depart="10.00" departLane="754598165#2_0" departPos="5.10" departSpeed="0.00" departDelay="0.00" arrival="171.00" arrivalLane="757092064#1_1" arrivalPos="81.46" arrivalSpeed="19.00" duration="161.00" routeLength="213.54" waitingTime="137.00" waitingCount="1" stopTime="0.00" timeLoss="149.48" rerouteNo="0" devices="tripinfo_commuter_N_S.0" vType="car_commuter" speedFactor="0.98" vaporized=""/>
    <tripinfo id="commuter_N_S.1" depart="18.00" departLane="754598165#2_0" departPos="5.10" departSpeed="0.00" departDelay="0.00" arrival="173.00" arrivalLane="757092064#1_1" arrivalPos="81.46" arrivalSpeed="19.82" duration="155.00" routeLength="213.54" waitingTime="129.00" waitingCount="1" stopTime="0.00" timeLoss="143.43" rerouteNo="0" devices="tripinfo_commuter_N_S.1" vType="car_commuter" speedFactor="0.94" vaporized=""/>
    <tripinfo id="commuter_N_W.0" depart="16.00" departLane="754598165#2_0" departPos="5.10" departSpeed="0.00" departDelay="2.00" arrival="174.00" arrivalLane="978400303#0_3" arrivalPos="149.14" arrivalSpeed="18.84" duration="158.00" routeLength="273.05" waitingTime="131.00" waitingCount="1" stopTime="0.00" timeLoss="142.67" rerouteNo="0" devices="tripinfo_commuter_N_W.0" vType="car_commuter" speedFactor="1.07" vaporized=""/>
    <tripinfo id="commuter_N_S.2" depart="21.00" departLane="754598165#2_0" departPos="5.10" departSpeed="0.00" departDelay="0.00" arrival="174.00" arrivalLane="757092064#1_0" arrivalPos="81.46" arrivalSpeed="19.43" duration="153.00" routeLength="213.54" waitingTime="129.00" waitingCount="1" stopTime="0.00" timeLoss="142.31" rerouteNo="0" devices="tripinfo_commuter_N_S.2" vType="car_commuter" speedFactor="0.81" vaporized=""/>
    <tripinfo id="commuter_N_S.3" depart="26.00" departLane="754598165#2_0" departPos="5.10" departSpeed="0.00" departDelay="0.00" arrival="174.00" arrivalLane="757092064#1_1" arrivalPos="81.46" arrivalSpeed="18.80" duration="148.00" routeLength="213.54" waitingTime="124.00" waitingCount="1" stopTime="0.00" timeLoss="137.04" rerouteNo="0" devices="tripinfo_commuter_N_S.3" vType="car_commuter" speedFactor="1.02" vaporized=""/>
    <tripinfo id="commuter_N_E.0" depart="5.00" departLane="754598165#2_0" departPos="5.10" departSpeed="0.00" departDelay="0.00" arrival="176.00" arrivalLane="563175146#1_0" arrivalPos="228.90" arrivalSpeed="19.54" duration="171.00" routeLength="331.30" waitingTime="143.00" waitingCount="1" stopTime="0.00" timeLoss="153.12" rerouteNo="0" devices="tripinfo_commuter_N_E.0" vType="car_commuter" speedFactor="0.99" vaporized=""/>
    <tripinfo id="commuter_N_W.1" depart="17.00" departLane="754598165#2_0" departPos="5.10" departSpeed="0.00" departDelay="2.00" arrival="176.00" arrivalLane="978400303#0_3" arrivalPos="149.14" arrivalSpeed="19.56" duration="159.00" routeLength="273.05" waitingTime="130.00" waitingCount="1" stopTime="0.00" timeLoss="143.35" rerouteNo="0" devices="tripinfo_commuter_N_W.1" vType="car_commuter" speedFactor="1.02" vaporized=""/>
    <tripinfo id="commuter_N_S.4" depart="33.00" departLane="754598165#2_0" departPos="5.10" departSpeed="0.00" departDelay="0.00" arrival="176.00" arrivalLane="757092064#1_0" arrivalPos="81.46" arrivalSpeed="19.38" duration="143.00" routeLength="213.54" waitingTime="120.00" waitingCount="1" stopTime="0.00" timeLoss="131.83" rerouteNo="0" devices="tripinfo_commuter_N_S.4" vType="car_commuter" speedFactor="0.89" vaporized=""/>
    <tripinfo id="commuter_N_S.5" depart="42.00" departLane="754598165#2_0" departPos="5.10" departSpeed="0.00" departDelay="0.00" arrival="176.00" arrivalLane="757092064#1_1" arrivalPos="81.46" arrivalSpeed="19.86" duration="134.00" routeLength="213.54" waitingTime="112.00" waitingCount="1" stopTime="0.00" timeLoss="122.89" rerouteNo="0" devices="tripinfo_commuter_N_S.5" vType="car_commuter" speedFactor="1.02" vaporized=""/>
    <tripinfo id="commuter_N_S.6" depart="52.00" departLane="754598165#2_0" departPos="5.10" departSpeed="0.00" departDelay="0.00" arrival="177.00" arrivalLane="757092064#1_0" arrivalPos="81.46" arrivalSpeed="19.97" duration="125.00" routeLength="213.54" waitingTime="102.00" waitingCount="1" stopTime="0.00" timeLoss="114.25" rerouteNo="0" devices="tripinfo_commuter_N_S.6" vType="car_commuter" speedFactor="1.06" vaporized=""/>
    <tripinfo id="commuter_N_E.1" depart="13.00" departLane="754598165#2_0" departPos="5.10" departSpeed="0.00" departDelay="3.00" arrival="178.00" arrivalLane="563175146#1_0" arrivalPos="228.90" arrivalSpeed="19.59" duration="165.00" routeLength="331.30" waitingTime="137.00" waitingCount="1" stopTime="0.00" timeLoss="147.87" rerouteNo="0" devices="tripinfo_commuter_N_E.1" vType="car_commuter" speedFactor="1.22" vaporized=""/>
    <tripinfo id="commuter_N_W.2" depart="36.00" departLane="754598165#2_0" departPos="5.10" departSpeed="0.00" departDelay="2.00" arrival="178.00" arrivalLane="978400303#0_3" arrivalPos="149.14" arrivalSpeed="18.86" duration="142.00" routeLength="273.05" waitingTime="116.00" waitingCount="1" stopTime="0.00" timeLoss="126.37" rerouteNo="0" devices="tripinfo_commuter_N_W.2" vType="car_commuter" speedFactor="1.07" vaporized=""/>
    <tripinfo id="commuter_N_W.3" depart="44.00" departLane="754598165#2_0" departPos="5.10" departSpeed="0.00" departDelay="0.00" arrival="180.00" arrivalLane="978400303#0_3" arrivalPos="149.14" arrivalSpeed="18.80" duration="136.00" routeLength="273.05" waitingTime="109.00" waitingCount="1" stopTime="0.00" timeLoss="120.56" rerouteNo="0" devices="tripinfo_commuter_N_W.3" vType="car_commuter" speedFactor="1.00" vaporized=""/>
    <tripinfo id="commuter_N_W.4" depart="58.00" departLane="754598165#2_0" departPos="5.10" departSpeed="0.00" departDelay="4.00" arrival="182.00" arrivalLane="978400303#0_3" arrivalPos="149.14" arrivalSpeed="19.95" duration="124.00" routeLength="273.05" waitingTime="96.00" waitingCount="1" stopTime="0.00" timeLoss="109.04" rerouteNo="0" devices="tripinfo_commuter_N_W.4" vType="car_commuter" speedFactor="1.23" vaporized=""/>
    <tripinfo id="bg_E_S.2" depart="66.00" departLane="749662140#0_0" departPos="5.10" departSpeed="0.00" departDelay="0.00" arrival="184.00" arrivalLane="757092064#1_0" arrivalPos="81.46" arrivalSpeed="16.62" duration="118.00" routeLength="177.43" waitingTime="96.00" waitingCount="1" stopTime="0.00" timeLoss="108.13" rerouteNo="0" devices="tripinfo_bg_E_S.2" vType="car_commuter" speedFactor="1.17" vaporized=""/>
    <tripinfo id="bg_E_N.1" depart="132.00" departLane="749662140#0_0" departPos="5.10" departSpeed="0.00" departDelay="0.00" arrival="188.00" arrivalLane="749988360#0_2" arrivalPos="93.21" arrivalSpeed="18.87" duration="56.00" routeLength="241.59" waitingTime="31.00" waitingCount="1" stopTime="0.00" timeLoss="42.78" rerouteNo="0" devices="tripinfo_bg_E_N.1" vType="car_commuter" speedFactor="1.02" vaporized=""/>
    <tripinfo id="bg_E_S.3" depart="137.00" departLane="749662140#0_0" departPos="5.10" departSpeed="0.00" departDelay="1.00" arrival="189.00" arrivalLane="757092064#1_0" arrivalPos="81.46" arrivalSpeed="19.77" duration="52.00" routeLength="177.43" waitingTime="29.00" waitingCount="1" stopTime="0.00" timeLoss="41.69" rerouteNo="0" devices="tripinfo_bg_E_S.3" vType="car_commuter" speedFactor="1.06" vaporized=""/>
    <tripinfo id="bg_E_W.3" depart="88.00" departLane="749662140#0_0" departPos="5.10" departSpeed="0.00" departDelay="0.00" arrival="190.00" arrivalLane="978400303#0_1" arrivalPos="149.14" arrivalSpeed="19.28" duration="102.00" routeLength="297.03" waitingTime="74.00" waitingCount="1" stopTime="0.00" timeLoss="86.51" rerouteNo="0" devices="tripinfo_bg_E_W.3" vType="car_commuter" speedFactor="1.00" vaporized=""/>
    <tripinfo id="bg_E_W.5" depart="134.00" departLane="749662140#0_0" departPos="5.10" departSpeed="0.00" departDelay="0.00" arrival="190.00" arrivalLane="978400303#0_2" arrivalPos="149.14" arrivalSpeed="19.20" duration="56.00" routeLength="297.03" waitingTime="27.00" waitingCount="1" stopTime="0.00" timeLoss="40.82" rerouteNo="0" devices="tripinfo_bg_E_W.5" vType="car_commuter" speedFactor="1.02" vaporized=""/>
    <tripinfo id="bg_E_N.2" depart="166.00" departLane="749662140#0_0" departPos="5.10" departSpeed="0.00" departDelay="3.00" arrival="190.00" arrivalLane="749988360#0_2" arrivalPos="93.21" arrivalSpeed="18.84" duration="24.00" routeLength="241.59" waitingTime="0.00" waitingCount="0" stopTime="0.00" timeLoss="10.69" rerouteNo="0" devices="tripinfo_bg_E_N.2" vType="car_commuter" speedFactor="0.99" vaporized=""/>
    <tripinfo id="bg_E_W.4" depart="113.00" departLane="749662140#0_0" departPos="5.10" departSpeed="0.00" departDelay="0.00" arrival="192.00" arrivalLane="978400303#0_0" arrivalPos="149.14" arrivalSpeed="19.09" duration="79.00" routeLength="297.03" waitingTime="50.00" waitingCount="1" stopTime="0.00" timeLoss="63.82" rerouteNo="0" devices="tripinfo_bg_E_W.4" vType="car_commuter" speedFactor="0.95" vaporized=""/>
    <tripinfo id="bg_E_W.6" depart="146.00" departLane="749662140#0_0" departPos="5.10" departSpeed="0.00" departDelay="0.00" arrival="192.00" arrivalLane="978400303#0_1" arrivalPos="149.14" arrivalSpeed="19.25" duration="46.00" routeLength="297.03" waitingTime="17.00" waitingCount="1" stopTime="0.00" timeLoss="30.64" rerouteNo="0" devices="tripinfo_bg_E_W.6" vType="car_commuter" speedFactor="0.97" vaporized=""/>
    <tripinfo id="bg_E_W.7" depart="163.00" departLane="749662140#0_0" departPos="5.10" departSpeed="0.00" departDelay="0.00" arrival="192.00" arrivalLane="978400303#0_2" arrivalPos="149.14" arrivalSpeed="19.05" duration="29.00" routeLength="297.03" waitingTime="0.00" waitingCount="0" stopTime="0.00" timeLoss="13.53" rerouteNo="0" devices="tripinfo_bg_E_W.7" vType="car_commuter" speedFactor="0.94" vaporized=""/>
    <tripinfo id="commuter_N_S.8" depart="60.00" departLane="754598165#2_0" departPos="5.10" departSpeed="0.00" departDelay="1.00" arrival="305.00" arrivalLane="757092064#1_2" arrivalPos="81.46" arrivalSpeed="19.25" duration="245.00" routeLength="213.54" waitingTime="214.00" waitingCount="2" stopTime="0.00" timeLoss="233.98" rerouteNo="0" devices="tripinfo_commuter_N_S.8" vType="car_commuter" speedFactor="1.12" vaporized=""/>
    <tripinfo id="commuter_N_S.7" depart="59.00" departLane="754598165#2_0" departPos="5.10" departSpeed="0.00" departDelay="1.00" arrival="306.00" arrivalLane="757092064#1_0" arrivalPos="81.46" arrivalSpeed="18.88" duration="247.00" routeLength="213.54" waitingTime="216.00" waitingCount="2" stopTime="0.00" timeLoss="235.44" rerouteNo="0" devices="tripinfo_commuter_N_S.7" vType="car_commuter" speedFactor="0.96" vaporized=""/>
    <tripinfo id="commuter_N_S.9" depart="63.00" departLane="754598165#2_0" departPos="5.10" departSpeed="0.00" departDelay="3.00" arrival="307.00" arrivalLane="757092064#1_1" arrivalPos="81.46" arrivalSpeed="18.97" duration="244.00" routeLength="213.54" waitingTime="213.00" waitingCount="2" stopTime="0.00" timeLoss="233.09" rerouteNo="0" devices="tripinfo_commuter_N_S.9" vType="car_commuter" speedFactor="1.12" vaporized=""/>
    <tripinfo id="commuter_N_S.10" depart="70.00" departLane="754598165#2_0" departPos="5.10" departSpeed="0.00" departDelay="5.00" arrival="309.00" arrivalLane="757092064#1_1" arrivalPos="81.46" arrivalSpeed="19.23" duration="239.00" routeLength="213.54" waitingTime="207.00" waitingCount="2" stopTime="0.00" timeLoss="227.94" rerouteNo="0" devices="tripinfo_commuter_N_S.10" vType="car_commuter" speedFactor="1.18" vaporized=""/>
    <tripinfo id="commuter_N_W.5" depart="69.00" departLane="754598165#2_0" departPos="5.10" departSpeed="0.00" departDelay="8.00" arrival="311.00" arrivalLane="978400303#0_3" arrivalPos="149.14" arrivalSpeed="19.03" duration="242.00" routeLength="273.05" waitingTime="207.00" waitingCount="2" stopTime="0.00" timeLoss="226.51" rerouteNo="0" devices="tripinfo_commuter_N_W.5" vType="car_commuter" speedFactor="0.97" vaporized=""/>
    <tripinfo id="commuter_N_S.11" depart="78.00" departLane="754598165#2_0" departPos="5.10" departSpeed="0.00" departDelay="1.00" arrival="311.00" arrivalLane="757092064#1_1" arrivalPos="81.46" arrivalSpeed="19.13" duration="233.00" routeLength="213.54" waitingTime="202.00" waitingCount="2" stopTime="0.00" timeLoss="221.93" rerouteNo="0" devices="tripinfo_commuter_N_S.11" vType="car_commuter" speedFactor="0.94" vaporized=""/>
    <tripinfo id="commuter_N_S.12" depart="169.00" departLane="754598165#2_0" departPos="5.10" departSpeed="0.00" departDelay="71.00" arrival="311.00" arrivalLane="757092064#1_2" arrivalPos="81.46" arrivalSpeed="19.52" duration="142.00" routeLength="213.54" waitingTime="115.00" waitingCount="1" stopTime="0.00" timeLoss="130.40" rerouteNo="0" devices="tripinfo_commuter_N_S.12" vType="car_commuter" speedFactor="0.93" vaporized=""/>
    <tripinfo id="commuter_N_E.2" depart="55.00" departLane="754598165#2_0" departPos="5.10" departSpeed="0.00" departDelay="2.00" arrival="312.00" arrivalLane="563175146#1_0" arrivalPos="228.90" arrivalSpeed="19.58" duration="257.00" routeLength="331.30" waitingTime="219.00" waitingCount="2" stopTime="0.00" timeLoss="238.89" rerouteNo="0" devices="tripinfo_commuter_N_E.2" vType="car_commuter" speedFactor="0.86" vaporized=""/>
    <tripinfo id="commuter_N_W.6" depart="71.00" departLane="754598165#2_0" departPos="5.10" departSpeed="0.00" departDelay="0.00" arrival="313.00" arrivalLane="978400303#0_3" arrivalPos="149.14" arrivalSpeed="19.42" duration="242.00" routeLength="273.05" waitingTime="206.00" waitingCount="3" stopTime="0.00" timeLoss="226.47" rerouteNo="0" devices="tripinfo_commuter_N_W.6" vType="car_commuter" speedFactor="0.93" vaporized=""/>
    <tripinfo id="commuter_N_S.13" depart="172.00" departLane="754598165#2_0" departPos="5.10" departSpeed="0.00" departDelay="73.00" arrival="313.00" arrivalLane="757092064#1_0" arrivalPos="81.46" arrivalSpeed="19.00" duration="141.00" routeLength="213.54" waitingTime="116.00" waitingCount="2" stopTime="0.00" timeLoss="130.21" rerouteNo="0" devices="tripinfo_commuter_N_S.13" vType="car_commuter" speedFactor="1.07" vaporized=""/>
    <tripinfo id="commuter_N_S.14" depart="177.00" departLane="754598165#2_0" departPos="5.10" departSpeed="0.00" departDelay="74.00" arrival="313.00" arrivalLane="757092064#1_1" arrivalPos="81.46" arrivalSpeed="19.17" duration="136.00" routeLength="213.54" waitingTime="113.00" waitingCount="1" stopTime="0.00" timeLoss="124.56" rerouteNo="0" devices="tripinfo_commuter_N_S.14" vType="car_commuter" speedFactor="1.07" vaporized=""/>
    <tripinfo id="commuter_N_E.3" depart="66.00" departLane="754598165#2_0" departPos="5.10" departSpeed="0.00" departDelay="5.00" arrival="314.00" arrivalLane="563175146#1_0" arrivalPos="228.90" arrivalSpeed="19.19" duration="248.00" routeLength="331.30" waitingTime="209.00" waitingCount="2" stopTime="0.00" timeLoss="229.89" rerouteNo="0" devices="tripinfo_commuter_N_E.3" vType="car_commuter" speedFactor="1.08" vaporized=""/>
    <tripinfo id="commuter_N_W.7" depart="176.00" departLane="754598165#2_0" departPos="5.10" departSpeed="0.00" departDelay="77.00" arrival="316.00" arrivalLane="978400303#0_3" arrivalPos="149.14" arrivalSpeed="18.89" duration="140.00" routeLength="273.05" waitingTime="112.00" waitingCount="1" stopTime="0.00" timeLoss="124.46" rerouteNo="0" devices="tripinfo_commuter_N_W.7" vType="car_commuter" speedFactor="1.06" vaporized=""/>
    <tripinfo id="commuter_N_E.4" depart="75.00" departLane="754598165#2_0" departPos="5.10" departSpeed="0.00" departDelay="0.00" arrival="317.00" arrivalLane="563175146#1_0" arrivalPos="228.90" arrivalSpeed="19.27" duration="242.00" routeLength="331.30" waitingTime="202.00" waitingCount="2" stopTime="0.00" timeLoss="223.37" rerouteNo="0" devices="tripinfo_commuter_N_E.4" vType="car_commuter" speedFactor="0.77" vaporized=""/>
    <tripinfo id="commuter_N_E.5" depart="92.00" departLane="754598165#2_0" departPos="5.10" departSpeed="0.00" departDelay="0.00" arrival="320.00" arrivalLane="563175146#1_0" arrivalPos="228.90" arrivalSpeed="17.79" duration="228.00" routeLength="331.30" waitingTime="188.00" waitingCount="2" stopTime="0.00" timeLoss="207.73" rerouteNo="0" devices="tripinfo_commuter_N_E.5" vType="car_commuter" speedFactor="0.67" vaporized=""/>
    <tripinfo id="bg_E_N.3" depart="224.00" departLane="749662140#0_0" departPos="5.10" departSpeed="0.00" departDelay="2.00" arrival="322.00" arrivalLane="749988360#0_2" arrivalPos="93.21" arrivalSpeed="19.81" duration="98.00" routeLength="241.59" waitingTime="73.00" waitingCount="1" stopTime="0.00" timeLoss="85.58" rerouteNo="0" devices="tripinfo_bg_E_N.3" vType="car_commuter" speedFactor="1.04" vaporized=""/>
    <tripinfo id="bg_E_W.9" depart="221.00" departLane="749662140#0_0" departPos="5.10" departSpeed="0.00" departDelay="0.00" arrival="324.00" arrivalLane="978400303#0_1" arrivalPos="149.14" arrivalSpeed="19.80" duration="103.00" routeLength="297.03" waitingTime="77.00" waitingCount="1" stopTime="0.00" timeLoss="88.05" rerouteNo="0" devices="tripinfo_bg_E_W.9" vType="car_commuter" speedFactor="1.14" vaporized=""/>
    <tripinfo id="bg_E_N.4" depart="235.00" departLane="749662140#0_0" departPos="5.10" departSpeed="0.00" departDelay="3.00" arrival="324.00" arrivalLane="749988360#0_2" arrivalPos="93.21" arrivalSpeed="19.05" duration="89.00" routeLength="241.59" waitingTime="63.00" waitingCount="1" stopTime="0.00" timeLoss="76.18" rerouteNo="0" devices="tripinfo_bg_E_N.4" vType="car_commuter" speedFactor="1.01" vaporized=""/>
    <tripinfo id="bg_E_S.4" depart="274.00" departLane="749662140#0_0" departPos="5.10" departSpeed="0.00" departDelay="0.00" arrival="324.00" arrivalLane="757092064#1_0" arrivalPos="81.46" arrivalSpeed="18.90" duration="50.00" routeLength="177.43" waitingTime="26.00" waitingCount="1" stopTime="0.00" timeLoss="39.66" rerouteNo="0" devices="tripinfo_bg_E_S.4" vType="car_commuter" speedFactor="1.14" vaporized=""/>
    <tripinfo id="bg_E_W.8" depart="195.00" departLane="749662140#0_0" departPos="5.10" departSpeed="0.00" departDelay="0.00" arrival="325.00" arrivalLane="978400303#0_0" arrivalPos="149.14" arrivalSpeed="19.22" duration="130.00" routeLength="297.03" waitingTime="102.00" waitingCount="1" stopTime="0.00" timeLoss="114.85" rerouteNo="0" devices="tripinfo_bg_E_W.8" vType="car_commuter" speedFactor="0.95" vaporized=""/>
    <tripinfo id="bg_E_W.11" depart="240.00" departLane="749662140#0_0" departPos="5.10" departSpeed="0.00" departDelay="0.00" arrival="325.00" arrivalLane="978400303#0_2" arrivalPos="149.14" arrivalSpeed="19.39" duration="85.00" routeLength="297.03" waitingTime="56.00" waitingCount="1" stopTime="0.00" timeLoss="69.92" rerouteNo="0" devices="tripinfo_bg_E_W.11" vType="car_commuter" speedFactor="0.98" vaporized=""/>
    <tripinfo id="bg_E_N.5" depart="244.00" departLane="749662140#0_0" departPos="5.10" departSpeed="0.00" departDelay="0.00" arrival="326.00" arrivalLane="749988360#0_2" arrivalPos="93.21" arrivalSpeed="19.47" duration="82.00" routeLength="241.59" waitingTime="58.00" waitingCount="1" stopTime="0.00" timeLoss="68.78" rerouteNo="0" devices="tripinfo_bg_E_N.5" vType="car_commuter" speedFactor="0.86" vaporized=""/>
    <tripinfo id="bg_E_W.10" depart="232.00" departLane="749662140#0_0" departPos="5.10" departSpeed="0.00" departDelay="0.00" arrival="327.00" arrivalLane="978400303#0_0" arrivalPos="149.14" arrivalSpeed="18.79" duration="95.00" routeLength="297.03" waitingTime="66.00" waitingCount="1" stopTime="0.00" timeLoss="79.66" rerouteNo="0" devices="tripinfo_bg_E_W.10" vType="car_commuter" speedFactor="1.03" vaporized=""/>
    <tripinfo id="bg_E_W.12" depart="251.00" departLane="749662140#0_0" departPos="5.10" departSpeed="0.00" departDelay="0.00" arrival="327.00" arrivalLane="978400303#0_1" arrivalPos="149.14" arrivalSpeed="19.81" duration="76.00" routeLength="297.03" waitingTime="49.00" waitingCount="1" stopTime="0.00" timeLoss="60.23" rerouteNo="0" devices="tripinfo_bg_E_W.12" vType="car_commuter" speedFactor="1.00" vaporized=""/>
    <tripinfo id="bg_E_W.13" depart="282.00" departLane="749662140#0_0" departPos="5.10" departSpeed="0.00" departDelay="0.00" arrival="327.00" arrivalLane="978400303#0_2" arrivalPos="149.14" arrivalSpeed="19.51" duration="45.00" routeLength="297.03" waitingTime="15.00" waitingCount="1" stopTime="0.00" timeLoss="29.47" rerouteNo="0" devices="tripinfo_bg_E_W.13" vType="car_commuter" speedFactor="1.00" vaporized=""/>
    <tripinfo id="bg_E_N.6" depart="279.00" departLane="749662140#0_0" departPos="5.10" departSpeed="0.00" departDelay="0.00" arrival="328.00" arrivalLane="749988360#0_2" arrivalPos="93.21" arrivalSpeed="19.60" duration="49.00" routeLength="241.59" waitingTime="21.00" waitingCount="1" stopTime="0.00" timeLoss="35.69" rerouteNo="0" devices="tripinfo_bg_E_N.6" vType="car_commuter" speedFactor="0.95" vaporized=""/>
    <tripinfo id="bg_E_W.14" depart="285.00" departLane="749662140#0_0" departPos="5.10" departSpeed="0.00" departDelay="2.00" arrival="328.00" arrivalLane="978400303#0_1" arrivalPos="149.14" arrivalSpeed="19.86" duration="43.00" routeLength="297.03" waitingTime="15.00" waitingCount="1" stopTime="0.00" timeLoss="28.06" rerouteNo="0" devices="tripinfo_bg_E_W.14" vType="car_commuter" speedFactor="0.94" vaporized=""/>
    <tripinfo id="bg_E_N.7" depart="299.00" departLane="749662140#0_0" departPos="5.10" departSpeed="0.00" departDelay="0.00" arrival="331.00" arrivalLane="749988360#0_2" arrivalPos="93.21" arrivalSpeed="19.75" duration="32.00" routeLength="241.59" waitingTime="5.00" waitingCount="1" stopTime="0.00" timeLoss="19.27" rerouteNo="0" devices="tripinfo_bg_E_N.7" vType="car_commuter" speedFactor="0.97" vaporized=""/>
    <tripinfo id="commuter_N_S.16" depart="184.00" departLane="754598165#2_0" departPos="5.10" departSpeed="0.00" departDelay="75.00" arrival="386.00" arrivalLane="757092064#1_1" arrivalPos="81.46" arrivalSpeed="19.80" duration="202.00" routeLength="213.54" waitingTime="174.00" waitingCount="2" stopTime="0.00" timeLoss="191.16" rerouteNo="0" devices="tripinfo_commuter_N_S.16" vType="car_commuter" speedFactor="0.87" vaporized=""/>
    <tripinfo id="commuter_N_S.15" depart="180.00" departLane="754598165#2_0" departPos="5.10" departSpeed="0.00" departDelay="73.00" arrival="387.00" arrivalLane="757092064#1_0" arrivalPos="81.46" arrivalSpeed="19.83" duration="207.00" routeLength="213.54" waitingTime="179.00" waitingCount="2" stopTime="0.00" timeLoss="195.53" rerouteNo="0" devices="tripinfo_commuter_N_S.15" vType="car_commuter" speedFactor="0.96" vaporized=""/>
    <tripinfo id="commuter_N_S.17" depart="188.00" departLane="754598165#2_0" departPos="5.10" departSpeed="0.00" departDelay="72.00" arrival="388.00" arrivalLane="757092064#1_1" arrivalPos="81.46" arrivalSpeed="19.67" duration="200.00" routeLength="213.54" waitingTime="171.00" waitingCount="2" stopTime="0.00" timeLoss="188.97" rerouteNo="0" devices="tripinfo_commuter_N_S.17" vType="car_commuter" speedFactor="1.22" vaporized=""/>
    <tripinfo id="commuter_N_S.18" depart="304.00" departLane="754598165#2_0" departPos="5.10" departSpeed="0.00" departDelay="181.00" arrival="388.00" arrivalLane="757092064#1_2" arrivalPos="81.46" arrivalSpeed="19.54" duration="84.00" routeLength="213.54" waitingTime="60.00" waitingCount="1" stopTime="0.00" timeLoss="73.14" rerouteNo="0" devices="tripinfo_commuter_N_S.18" vType="car_commuter" speedFactor="1.03" vaporized=""/>
    <tripinfo id="commuter_N_W.8" depart="183.00" departLane="754598165#2_0" departPos="5.10" departSpeed="0.00" departDelay="76.00" arrival="390.00" arrivalLane="978400303#0_3" arrivalPos="149.14" arrivalSpeed="19.64" duration="207.00" routeLength="273.05" waitingTime="175.00" waitingCount="2" stopTime="0.00" timeLoss="191.98" rerouteNo="0" devices="tripinfo_commuter_N_W.8" vType="car_commuter" speedFactor="1.25" vaporized=""/>
    <tripinfo id="commuter_N_S.19" depart="308.00" departLane="754598165#2_0" departPos="5.10" departSpeed="0.00" departDelay="183.00" arrival="390.00" arrivalLane="757092064#1_1" arrivalPos="81.46" arrivalSpeed="19.00" duration="82.00" routeLength="213.54" waitingTime="59.00" waitingCount="1" stopTime="0.00" timeLoss="70.66" rerouteNo="0" devices="tripinfo_commuter_N_S.19" vType="car_commuter" speedFactor="0.99" vaporized=""/>
    <tripinfo id="commuter_N_S.20" depart="311.00" departLane="754598165#2_0" departPos="5.10" departSpeed="0.00" departDelay="185.00" arrival="392.00" arrivalLane="757092064#1_1" arrivalPos="81.46" arrivalSpeed="18.93" duration="81.00" routeLength="213.54" waitingTime="57.00" waitingCount="1" stopTime="0.00" timeLoss="70.22" rerouteNo="0" devices="tripinfo_commuter_N_S.20" vType="car_commuter" speedFactor="0.95" vaporized=""/>
    <tripinfo id="commuter_N_E.6" depart="185.00" departLane="754598165#2_0" departPos="5.10" departSpeed="0.00" departDelay="76.00" arrival="395.00" arrivalLane="563175146#1_0" arrivalPos="228.90" arrivalSpeed="19.02" duration="210.00" routeLength="331.30" waitingTime="174.00" waitingCount="2" stopTime="0.00" timeLoss="191.87" rerouteNo="0" devices="tripinfo_commuter_N_E.6" vType="car_commuter" speedFactor="0.91" vaporized=""/>
    <tripinfo id="commuter_N_W.9" depart="307.00" departLane="754598165#2_0" departPos="5.10" departSpeed="0.00" departDelay="184.00" arrival="396.00" arrivalLane="978400303#0_3" arrivalPos="149.14" arrivalSpeed="19.20" duration="89.00" routeLength="273.05" waitingTime="58.00" waitingCount="1" stopTime="0.00" timeLoss="71.95" rerouteNo="0" devices="tripinfo_commuter_N_W.9" vType="car_commuter" speedFactor="0.80" vaporized=""/>
    <tripinfo id="commuter_N_E.7" depart="190.00" departLane="754598165#2_0" departPos="5.10" departSpeed="0.00" departDelay="74.00" arrival="397.00" arrivalLane="563175146#1_0" arrivalPos="228.90" arrivalSpeed="19.19" duration="207.00" routeLength="331.30" waitingTime="170.00" waitingCount="2" stopTime="0.00" timeLoss="189.00" rerouteNo="0" devices="tripinfo_commuter_N_E.7" vType="car_commuter" speedFactor="0.82" vaporized=""/>