<?xml version="1.0" encoding="UTF-8"?>

<!-- generated on 2025-06-03 02:12:24 by Eclipse SUMO sumo Version 1.22.0
<sumoConfiguration xmlns:xsi="http://www.w3.org/2001/XMLSchema-instance" xsi:noNamespaceSchemaLocation="http://sumo.dlr.de/xsd/sumoConfiguration.xsd">

    <input>
        <net-file value="osm.net.xml"/>
        <route-files value="route.rou.xml"/>
        <additional-files value="osm.poly.xml.gz"/>
    </input>

    <output>
        <summary-output value="summary_eval_offline_4act_ep5.xml"/>
        <tripinfo-output value="tripinfo_eval_offline_4act_ep5.xml"/>
    </output>

    <time>
        <begin value="0"/>
        <end value="3600"/>
    </time>

    <processing>
        <time-to-teleport value="-1"/>
        <waiting-time-memory value="1000"/>
    </processing>

    <report>
        <verbose value="true"/>
        <duration-log.statistics value="true"/>
        <no-step-log value="true"/>
    </report>

    <traci_server>
        <remote-port value="62889"/>
    </traci_server>

    <random_number>
        <seed value="13856"/>
    </random_number>

</sumoConfiguration>
-->

<tripinfos xmlns:xsi="http://www.w3.org/2001/XMLSchema-instance" xsi:noNamespaceSchemaLocation="http://sumo.dlr.de/xsd/tripinfo_file.xsd">
    <tripinfo id="bg_E_N.0" depart="11.00" departLane="749662140#0_0" departPos="5.10" departSpeed="0.00" departDelay="0.00" arrival="30.00" arrivalLane="749988360#0_2" arrivalPos="93.21" arrivalSpeed="19.12" duration="19.00" routeLength="241.59" waitingTime="0.00" waitingCount="0" stopTime="0.00" timeLoss="5.36" rerouteNo="0" devices="tripinfo_bg_E_N.0" vType="car_commuter" speedFactor="0.86" vaporized=""/>
    <tripinfo id="bg_E_W.0" depart="21.00" departLane="749662140#0_0" departPos="5.10" departSpeed="0.00" departDelay="0.00" arrival="41.00" arrivalLane="978400303#0_0" arrivalPos="149.14" arrivalSpeed="18.96" duration="20.00" routeLength="297.03" waitingTime="0.00" waitingCount="0" stopTime="0.00" timeLoss="4.53" rerouteNo="0" devices="tripinfo_bg_E_W.0" vType="car_commuter" speedFactor="1.04" vaporized=""/>
    <tripinfo id="bg_E_N.1" depart="29.00" departLane="749662140#0_0" departPos="5.10" departSpeed="0.00" departDelay="0.00" arrival="46.00" arrivalLane="749988360#0_2" arrivalPos="93.21" arrivalSpeed="19.67" duration="17.00" routeLength="241.59" waitingTime="0.00" waitingCount="0" stopTime="0.00" timeLoss="4.80" rerouteNo="0" devices="tripinfo_bg_E_N.1" vType="car_commuter" speedFactor="1.11" vaporized=""/>
    <tripinfo id="bg_E_S.0" depart="32.00" departLane="749662140#0_0" departPos="5.10" departSpeed="0.00" departDelay="0.00" arrival="52.00" arrivalLane="757092064#1_0" arrivalPos="81.46" arrivalSpeed="18.34" duration="20.00" routeLength="177.43" waitingTime="0.00" waitingCount="0" stopTime="0.00" timeLoss="9.33" rerouteNo="0" devices="tripinfo_bg_E_S.0" vType="car_commuter" speedFactor="1.05" vaporized=""/>
    <tripinfo id="bg_E_W.1" depart="38.00" departLane="749662140#0_0" departPos="5.10" departSpeed="0.00" departDelay="0.00" arrival="58.00" arrivalLane="978400303#0_0" arrivalPos="149.14" arrivalSpeed="18.91" duration="20.00" routeLength="297.03" waitingTime="0.00" waitingCount="0" stopTime="0.00" timeLoss="4.89" rerouteNo="0" devices="tripinfo_bg_E_W.1" vType="car_commuter" speedFactor="0.91" vaporized=""/>
    <tripinfo id="bg_E_W.2" depart="43.00" departLane="749662140#0_0" departPos="5.10" departSpeed="0.00" departDelay="0.00" arrival="63.00" arrivalLane="978400303#0_0" arrivalPos="149.14" arrivalSpeed="19.81" duration="20.00" routeLength="297.03" waitingTime="0.00" waitingCount="0" stopTime="0.00" timeLoss="4.69" rerouteNo="0" devices="tripinfo_bg_E_W.2" vType="car_commuter" speedFactor="0.97" vaporized=""/>
    <tripinfo id="bg_E_W.3" depart="47.00" departLane="749662140#0_0" departPos="5.10" departSpeed="0.00" departDelay="0.00" arrival="67.00" arrivalLane="978400303#0_0" arrivalPos="149.14" arrivalSpeed="19.79" duration="20.00" routeLength="297.03" waitingTime="0.00" waitingCount="0" stopTime="0.00" timeLoss="4.86" rerouteNo="0" devices="tripinfo_bg_E_W.3" vType="car_commuter" speedFactor="1.01" vaporized=""/>
    <tripinfo id="commuter_N_S.0" depart="6.00" departLane="754598165#2_0" departPos="5.10" departSpeed="0.00" departDelay="0.00" arrival="408.00" arrivalLane="757092064#1_0" arrivalPos="81.46" arrivalSpeed="19.02" duration="402.00" routeLength="213.54" waitingTime="380.00" waitingCount="1" stopTime="0.00" timeLoss="390.98" rerouteNo="0" devices="tripinfo_commuter_N_S.0" vType="car_commuter" speedFactor="0.87" vaporized=""/>
    <tripinfo id="commuter_N_S.1" depart="9.00" departLane="754598165#2_0" departPos="5.10" departSpeed="0.00" departDelay="0.00" arrival="408.00" arrivalLane="757092064#1_1" arrivalPos="81.46" arrivalSpeed="18.92" duration="399.00" routeLength="213.54" waitingTime="373.00" waitingCount="1" stopTime="0.00" timeLoss="387.68" rerouteNo="0" devices="tripinfo_commuter_N_S.1" vType="car_commuter" speedFactor="0.89" vaporized=""/>
    <tripinfo id="commuter_N_S.2" depart="20.00" departLane="754598165#2_0" departPos="5.10" departSpeed="0.00" departDelay="2.00" arrival="410.00" arrivalLane="757092064#1_1" arrivalPos="81.46" arrivalSpeed="19.62" duration="390.00" routeLength="213.54" waitingTime="366.00" waitingCount="1" stopTime="0.00" timeLoss="378.56" rerouteNo="0" devices="tripinfo_commuter_N_S.2" vType="car_commuter" speedFactor="1.00" vaporized=""/>
    <tripinfo id="commuter_N_S.3" depart="24.00" departLane="754598165#2_0" departPos="5.10" departSpeed="0.00" departDelay="0.00" arrival="411.00" arrivalLane="757092064#1_0" arrivalPos="81.46" arrivalSpeed="18.75" duration="387.00" routeLength="213.54" waitingTime="364.00" waitingCount="1" stopTime="0.00" timeLoss="375.67" rerouteNo="0" devices="tripinfo_commuter_N_S.3" vType="car_commuter" speedFactor="0.92" vaporized=""/>
    <tripinfo id="commuter_N_W.0" depart="0.00" departLane="754598165#2_0" departPos="5.10" departSpeed="0.00" departDelay="0.00" arrival="412.00" arrivalLane="978400303#0_3" arrivalPos="149.14" arrivalSpeed="19.16" duration="412.00" routeLength="273.05" waitingTime="384.00" waitingCount="1" stopTime="0.00" timeLoss="395.88" rerouteNo="0" devices="tripinfo_commuter_N_W.0" vType="car_commuter" speedFactor="0.87" vaporized=""/>
    <tripinfo id="commuter_N_S.4" depart="31.00" departLane="754598165#2_0" departPos="5.10" departSpeed="0.00" departDelay="0.00" arrival="412.00" arrivalLane="757092064#1_1" arrivalPos="81.46" arrivalSpeed="19.94" duration="381.00" routeLength="213.54" waitingTime="357.00" waitingCount="1" stopTime="0.00" timeLoss="369.46" rerouteNo="0" devices="tripinfo_commuter_N_S.4" vType="car_commuter" speedFactor="0.97" vaporized=""/>
    <tripinfo id="commuter_N_S.5" depart="33.00" departLane="754598165#2_0" departPos="5.10" departSpeed="0.00" departDelay="0.00" arrival="413.00" arrivalLane="757092064#1_1" arrivalPos="81.46" arrivalSpeed="19.73" duration="380.00" routeLength="213.54" waitingTime="356.00" waitingCount="1" stopTime="0.00" timeLoss="369.14" rerouteNo="0" devices="tripinfo_commuter_N_S.5" vType="car_commuter" speedFactor="1.02" vaporized=""/>
    <tripinfo id="commuter_N_W.1" depart="12.00" departLane="754598165#2_0" departPos="5.10" departSpeed="0.00" departDelay="0.00" arrival="414.00" arrivalLane="978400303#0_3" arrivalPos="149.14" arrivalSpeed="18.96" duration="402.00" routeLength="273.05" waitingTime="375.00" waitingCount="1" stopTime="0.00" timeLoss="386.30" rerouteNo="0" devices="tripinfo_commuter_N_W.1" vType="car_commuter" speedFactor="0.95" vaporized=""/>
    <tripinfo id="commuter_N_S.6" depart="44.00" departLane="754598165#2_0" departPos="5.10" departSpeed="0.00" departDelay="0.00" arrival="414.00" arrivalLane="757092064#1_0" arrivalPos="81.46" arrivalSpeed="19.45" duration="370.00" routeLength="213.54" waitingTime="346.00" waitingCount="1" stopTime="0.00" timeLoss="358.98" rerouteNo="0" devices="tripinfo_commuter_N_S.6" vType="car_commuter" speedFactor="0.83" vaporized=""/>
    <tripinfo id="commuter_N_E.0" depart="17.00" departLane="754598165#2_0" departPos="5.10" departSpeed="0.00" departDelay="0.00" arrival="415.00" arrivalLane="563175146#1_0" arrivalPos="228.90" arrivalSpeed="18.77" duration="398.00" routeLength="331.30" waitingTime="369.00" waitingCount="1" stopTime="0.00" timeLoss="380.35" rerouteNo="0" devices="tripinfo_commuter_N_E.0" vType="car_commuter" speedFactor="1.02" vaporized=""/>
    <tripinfo id="commuter_N_S.7" depart="55.00" departLane="754598165#2_0" departPos="5.10" departSpeed="0.00" departDelay="0.00" arrival="415.00" arrivalLane="757092064#1_1" arrivalPos="81.46" arrivalSpeed="19.43" duration="360.00" routeLength="213.54" waitingTime="336.00" waitingCount="1" stopTime="0.00" timeLoss="348.85" rerouteNo="0" devices="tripinfo_commuter_N_S.7" vType="car_commuter" speedFactor="1.00" vaporized=""/>
    <tripinfo id="commuter_N_W.2" depart="23.00" departLane="754598165#2_0" departPos="5.10" departSpeed="0.00" departDelay="1.00" arrival="416.00" arrivalLane="978400303#0_3" arrivalPos="149.14" arrivalSpeed="19.87" duration="393.00" routeLength="273.05" waitingTime="364.00" waitingCount="1" stopTime="0.00" timeLoss="376.82" rerouteNo="0" devices="tripinfo_commuter_N_W.2" vType="car_commuter" speedFactor="0.97" vaporized=""/>
    <tripinfo id="commuter_N_S.8" depart="59.00" departLane="754598165#2_0" departPos="5.10" departSpeed="0.00" departDelay="0.00" arrival="416.00" arrivalLane="757092064#1_0" arrivalPos="81.46" arrivalSpeed="19.46" duration="357.00" routeLength="213.54" waitingTime="335.00" waitingCount="1" stopTime="0.00" timeLoss="346.09" rerouteNo="0" devices="tripinfo_commuter_N_S.8" vType="car_commuter" speedFactor="1.06" vaporized=""/>
    <tripinfo id="commuter_N_W.3" depart="36.00" departLane="754598165#2_0" departPos="5.10" departSpeed="0.00" departDelay="3.00" arrival="417.00" arrivalLane="978400303#0_3" arrivalPos="149.14" arrivalSpeed="19.12" duration="381.00" routeLength="273.05" waitingTime="353.00" waitingCount="1" stopTime="0.00" timeLoss="366.16" rerouteNo="0" devices="tripinfo_commuter_N_W.3" vType="car_commuter" speedFactor="1.19" vaporized=""/>
    <tripinfo id="commuter_N_S.9" depart="62.00" departLane="754598165#2_0" departPos="5.10" departSpeed="0.00" departDelay="1.00" arrival="417.00" arrivalLane="757092064#1_1" arrivalPos="81.46" arrivalSpeed="18.76" duration="355.00" routeLength="213.54" waitingTime="330.00" waitingCount="1" stopTime="0.00" timeLoss="343.46" rerouteNo="0" devices="tripinfo_commuter_N_S.9" vType="car_commuter" speedFactor="0.90" vaporized=""/>
    <tripinfo id="commuter_N_S.11" depart="74.00" departLane="754598165#2_0" departPos="5.10" departSpeed="0.00" departDelay="0.00" arrival="417.00" arrivalLane="757092064#1_2" arrivalPos="81.46" arrivalSpeed="19.57" duration="343.00" routeLength="213.54" waitingTime="320.00" waitingCount="1" stopTime="0.00" timeLoss="331.62" rerouteNo="0" devices="tripinfo_commuter_N_S.11" vType="car_commuter" speedFactor="1.09" vaporized=""/>
    <tripinfo id="commuter_N_E.1" depart="27.00" departLane="754598165#2_0" departPos="5.10" departSpeed="0.00" departDelay="1.00" arrival="418.00" arrivalLane="563175146#1_0" arrivalPos="228.90" arrivalSpeed="19.14" duration="391.00" routeLength="331.30" waitingTime="362.00" waitingCount="1" stopTime="0.00" timeLoss="373.90" rerouteNo="0" devices="tripinfo_commuter_N_E.1" vType="car_commuter" speedFactor="1.03" vaporized=""/>
    <tripinfo id="commuter_N_S.10" depart="64.00" departLane="754598165#2_0" departPos="5.10" departSpeed="0.00" departDelay="1.00" arrival="418.00" arrivalLane="757092064#1_0" arrivalPos="81.46" arrivalSpeed="19.62" duration="354.00" routeLength="213.54" waitingTime="331.00" waitingCount="1" stopTime="0.00" timeLoss="342.91" rerouteNo="0" devices="tripinfo_commuter_N_S.10" vType="car_commuter" speedFactor="0.91" vaporized=""/>
    <tripinfo id="commuter_N_S.12" depart="78.00" departLane="754598165#2_0" departPos="5.10" departSpeed="0.00" departDelay="0.00" arrival="418.00" arrivalLane="757092064#1_1" arrivalPos="81.46" arrivalSpeed="19.37" duration="340.00" routeLength="213.54" waitingTime="318.00" waitingCount="1" stopTime="0.00" timeLoss="329.08" rerouteNo="0" devices="tripinfo_commuter_N_S.12" vType="car_commuter" speedFactor="1.03" vaporized=""/>
    <tripinfo id="commuter_N_S.13" depart="81.00" departLane="754598165#2_0" departPos="5.10" departSpeed="0.00" departDelay="0.00" arrival="419.00" arrivalLane="757092064#1_2" arrivalPos="81.46" arrivalSpeed="19.16" duration="338.00" routeLength="213.54" waitingTime="314.00" waitingCount="1" stopTime="0.00" timeLoss="326.62" rerouteNo="0" devices="tripinfo_commuter_N_S.13" vType="car_commuter" speedFactor="0.97" vaporized=""/>
    <tripinfo id="commuter_N_W.4" depart="47.00" departLane="754598165#2_0" departPos="5.10" departSpeed="0.00" departDelay="1.00" arrival="420.00" arrivalLane="978400303#0_3" arrivalPos="149.14" arrivalSpeed="19.97" duration="373.00" routeLength="273.05" waitingTime="344.00" waitingCount="1" stopTime="0.00" timeLoss="357.08" rerouteNo="0" devices="tripinfo_commuter_N_W.4" vType="car_commuter" speedFactor="0.98" vaporized=""/>
    <tripinfo id="commuter_N_S.14" depart="91.00" departLane="754598165#2_0" departPos="5.10" departSpeed="0.00" departDelay="0.00" arrival="420.00" arrivalLane="757092064#1_1" arrivalPos="81.46" arrivalSpeed="19.32" duration="329.00" routeLength="213.54" waitingTime="306.00" waitingCount="1" stopTime="0.00" timeLoss="317.57" rerouteNo="0" devices="tripinfo_commuter_N_S.14" vType="car_commuter" speedFactor="1.08" vaporized=""/>
    <tripinfo id="commuter_N_S.15" depart="92.00" departLane="754598165#2_0" departPos="5.10" departSpeed="0.00" departDelay="0.00" arrival="422.00" arrivalLane="757092064#1_1" arrivalPos="81.46" arrivalSpeed="18.72" duration="330.00" routeLength="213.54" waitingTime="307.00" waitingCount="1" stopTime="0.00" timeLoss="318.42" rerouteNo="0" devices="tripinfo_commuter_N_S.15" vType="car_commuter" speedFactor="1.03" vaporized=""/>
    <tripinfo id="commuter_N_S.16" depart="406.00" departLane="754598165#2_0" departPos="5.10" departSpeed="0.00" departDelay="311.00" arrival="423.00" arrivalLane="757092064#1_0" arrivalPos="81.46" arrivalSpeed="19.99" duration="17.00" routeLength="213.54" waitingTime="0.00" waitingCount="0" stopTime="0.00" timeLoss="5.83" rerouteNo="0" devices="tripinfo_commuter_N_S.16" vType="car_commuter" speedFactor="0.86" vaporized=""/>
    <tripinfo id="commuter_N_S.17" depart="410.00" departLane="754598165#2_0" departPos="5.10" departSpeed="0.00" departDelay="311.00" arrival="426.00" arrivalLane="757092064#1_0" arrivalPos="81.46" arrivalSpeed="19.47" duration="16.00" routeLength="213.54" waitingTime="0.00" waitingCount="0" stopTime="0.00" timeLoss="4.85" rerouteNo="0" devices="tripinfo_commuter_N_S.17" vType="car_commuter" speedFactor="1.04" vaporized=""/>
    <tripinfo id="commuter_N_E.2" depart="75.00" departLane="754598165#2_0" departPos="5.10" departSpeed="0.00" departDelay="0.00" arrival="427.00" arrivalLane="563175146#1_0" arrivalPos="228.90" arrivalSpeed="18.80" duration="352.00" routeLength="331.30" waitingTime="322.00" waitingCount="1" stopTime="0.00" timeLoss="334.18" rerouteNo="0" devices="tripinfo_commuter_N_E.2" vType="car_commuter" speedFactor="1.03" vaporized=""/>
    <tripinfo id="commuter_N_E.3" depart="413.00" departLane="754598165#2_0" departPos="5.10" departSpeed="0.00" departDelay="312.00" arrival="437.00" arrivalLane="563175146#1_0" arrivalPos="228.90" arrivalSpeed="18.73" duration="24.00" routeLength="331.30" waitingTime="0.00" waitingCount="0" stopTime="0.00" timeLoss="6.23" rerouteNo="0" devices="tripinfo_commuter_N_E.3" vType="car_commuter" speedFactor="1.02" vaporized=""/>
    <tripinfo id="bg_E_N.2" depart="63.00" departLane="749662140#0_0" departPos="5.10" departSpeed="0.00" departDelay="0.00" arrival="441.00" arrivalLane="749988360#0_2" arrivalPos="93.21" arrivalSpeed="19.55" duration="378.00" routeLength="241.59" waitingTime="353.00" waitingCount="1" stopTime="0.00" timeLoss="364.65" rerouteNo="0" devices="tripinfo_bg_E_N.2" vType="car_commuter" speedFactor="0.82" vaporized=""/>
    <tripinfo id="bg_E_S.1" depart="161.00" departLane="749662140#0_0" departPos="5.10" departSpeed="0.00" departDelay="0.00" arrival="441.00" arrivalLane="757092064#1_0" arrivalPos="81.46" arrivalSpeed="19.42" duration="280.00" routeLength="177.43" waitingTime="257.00" waitingCount="1" stopTime="0.00" timeLoss="268.87" rerouteNo="0" devices="tripinfo_bg_E_S.1" vType="car_commuter" speedFactor="0.92" vaporized=""/>
    <tripinfo id="bg_E_N.3" depart="70.00" departLane="749662140#0_0" departPos="5.10" departSpeed="0.00" departDelay="0.00" arrival="443.00" arrivalLane="749988360#0_2" arrivalPos="93.21" arrivalSpeed="18.97" duration="373.00" routeLength="241.59" waitingTime="348.00" waitingCount="1" stopTime="0.00" timeLoss="360.11" rerouteNo="0" devices="tripinfo_bg_E_N.3" vType="car_commuter" speedFactor="1.05" vaporized=""/>
    <tripinfo id="bg_E_W.4" depart="112.00" departLane="749662140#0_0" departPos="5.10" departSpeed="0.00" departDelay="0.00" arrival="444.00" arrivalLane="978400303#0_0" arrivalPos="149.14" arrivalSpeed="18.88" duration="332.00" routeLength="297.03" waitingTime="303.00" waitingCount="1" stopTime="0.00" timeLoss="316.40" rerouteNo="0" devices="tripinfo_bg_E_W.4" vType="car_commuter" speedFactor="1.05" vaporized=""/>
    <tripinfo id="bg_E_W.5" depart="164.00" departLane="749662140#0_0" departPos="5.10" departSpeed="0.00" departDelay="0.00" arrival="444.00" arrivalLane="978400303#0_1" arrivalPos="149.14" arrivalSpeed="18.81" duration="280.00" routeLength="297.03" waitingTime="252.00" waitingCount="1" stopTime="0.00" timeLoss="264.92" rerouteNo="0" devices="tripinfo_bg_E_W.5" vType="car_commuter" speedFactor="1.16" vaporized=""/>
    <tripinfo id="bg_E_W.6" depart="169.00" departLane="749662140#0_0" departPos="5.10" departSpeed="0.00" departDelay="0.00" arrival="444.00" arrivalLane="978400303#0_2" arrivalPos="149.14" arrivalSpeed="19.89" duration="275.00" routeLength="297.03" waitingTime="248.00" waitingCount="1" stopTime="0.00" timeLoss="259.35" rerouteNo="0" devices="tripinfo_bg_E_W.6" vType="car_commuter" speedFactor="1.12" vaporized=""/>
    <tripinfo id="bg_E_N.4" depart="217.00" departLane="749662140#0_0" departPos="5.10" departSpeed="0.00" departDelay="1.00" arrival="445.00" arrivalLane="749988360#0_2" arrivalPos="93.21" arrivalSpeed="19.51" duration="228.00" routeLength="241.59" waitingTime="202.00" waitingCount="1" stopTime="0.00" timeLoss="214.60" rerouteNo="0" devices="tripinfo_bg_E_N.4" vType="car_commuter" speedFactor="0.90" vaporized=""/>
    <tripinfo id="bg_E_S.2" depart="248.00" departLane="749662140#0_0" departPos="5.10" departSpeed="0.00" departDelay="1.00" arrival="445.00" arrivalLane="757092064#1_0" arrivalPos="81.46" arrivalSpeed="19.30" duration="197.00" routeLength="177.43" waitingTime="173.00" waitingCount="1" stopTime="0.00" timeLoss="186.40" rerouteNo="0" devices="tripinfo_bg_E_S.2" vType="car_commuter" speedFactor="1.23" vaporized=""/>
    <tripinfo id="bg_E_W.7" depart="184.00" departLane="749662140#0_0" departPos="5.10" departSpeed="0.00" departDelay="0.00" arrival="446.00" arrivalLane="978400303#0_1" arrivalPos="149.14" arrivalSpeed="19.33" duration="262.00" routeLength="297.03" waitingTime="233.00" waitingCount="1" stopTime="0.00" timeLoss="246.80" rerouteNo="0" devices="tripinfo_bg_E_W.7" vType="car_commuter" speedFactor="0.85" vaporized=""/>
    <tripinfo id="bg_E_W.9" depart="214.00" departLane="749662140#0_0" departPos="5.10" departSpeed="0.00" departDelay="0.00" arrival="447.00" arrivalLane="978400303#0_2" arrivalPos="149.14" arrivalSpeed="19.94" duration="233.00" routeLength="297.03" waitingTime="204.00" waitingCount="1" stopTime="0.00" timeLoss="217.27" rerouteNo="0" devices="tripinfo_bg_E_W.9" vType="car_commuter" speedFactor="1.07" vaporized=""/>
    <tripinfo id="bg_E_N.5" depart="247.00" departLane="749662140#0_0" departPos="5.10" departSpeed="0.00" departDelay="0.00" arrival="447.00" arrivalLane="749988360#0_2" arrivalPos="93.21" arrivalSpeed="18.94" duration="200.00" routeLength="241.59" waitingTime="174.00" waitingCount="1" stopTime="0.00" timeLoss="187.10" rerouteNo="0" devices="tripinfo_bg_E_N.5" vType="car_commuter" speedFactor="1.13" vaporized=""/>
    <tripinfo id="bg_E_W.8" depart="200.00" departLane="749662140#0_0" departPos="5.10" departSpeed="0.00" departDelay="0.00" arrival="448.00" arrivalLane="978400303#0_0" arrivalPos="149.14" arrivalSpeed="19.80" duration="248.00" routeLength="297.03" waitingTime="220.00" waitingCount="1" stopTime="0.00" timeLoss="232.99" rerouteNo="0" devices="tripinfo_bg_E_W.8" vType="car_commuter" speedFactor="1.07" vaporized=""/>
    <tripinfo id="bg_E_W.10" depart="254.00" departLane="749662140#0_0" departPos="5.10" departSpeed="0.00" departDelay="0.00" arrival="448.00" arrivalLane="978400303#0_1" arrivalPos="149.14" arrivalSpeed="19.25" duration="194.00" routeLength="297.03" waitingTime="165.00" waitingCount="1" stopTime="0.00" timeLoss="178.44" rerouteNo="0" devices="tripinfo_bg_E_W.10" vType="car_commuter" speedFactor="0.92" vaporized=""/>
    <tripinfo id="bg_E_W.11" depart="266.00" departLane="749662140#0_0" departPos="5.10" departSpeed="0.00" departDelay="0.00" arrival="448.00" arrivalLane="978400303#0_2" arrivalPos="149.14" arrivalSpeed="19.99" duration="182.00" routeLength="297.03" waitingTime="154.00" waitingCount="1" stopTime="0.00" timeLoss="166.91" rerouteNo="0" devices="tripinfo_bg_E_W.11" vType="car_commuter" speedFactor="0.99" vaporized=""/>
    <tripinfo id="bg_E_N.6" depart="275.00" departLane="749662140#0_0" departPos="5.10" departSpeed="0.00" departDelay="0.00" arrival="449.00" arrivalLane="749988360#0_2" arrivalPos="93.21" arrivalSpeed="18.82" duration="174.00" routeLength="241.59" waitingTime="148.00" waitingCount="1" stopTime="0.00" timeLoss="160.00" rerouteNo="0" devices="tripinfo_bg_E_N.6" vType="car_commuter" speedFactor="0.81" vaporized=""/>
    <tripinfo id="bg_E_N.7" depart="286.00" departLane="749662140#0_0" departPos="5.10" departSpeed="0.00" departDelay="0.00" arrival="450.00" arrivalLane="749988360#0_2" arrivalPos="93.21" arrivalSpeed="18.91" duration="164.00" routeLength="241.59" waitingTime="138.00" waitingCount="1" stopTime="0.00" timeLoss="151.89" rerouteNo="0" devices="tripinfo_bg_E_N.7" vType="car_commuter" speedFactor="1.23" vaporized=""/>
    <tripinfo id="bg_E_W.12" depart="294.00" departLane="749662140#0_0" departPos="5.10" departSpeed="0.00" departDelay="0.00" arrival="450.00" arrivalLane="978400303#0_1" arrivalPos="149.14" arrivalSpeed="18.81" duration="156.00" routeLength="297.03" waitingTime="126.00" waitingCount="1" stopTime="0.00" timeLoss="140.43" rerouteNo="0" devices="tripinfo_bg_E_W.12" vType="car_commuter" speedFactor="0.94" vaporized=""/>
    <tripinfo id="bg_E_S.3" depart="327.00" departLane="749662140#0_0" departPos="5.10" departSpeed="0.00" departDelay="0.00" arrival="450.00" arrivalLane="757092064#1_0" arrivalPos="81.46" arrivalSpeed="18.61" duration="123.00" routeLength="177.43" waitingTime="97.00" waitingCount="1" stopTime="0.00" timeLoss="112.76" rerouteNo="0" devices="tripinfo_bg_E_S.3" vType="car_commuter" speedFactor="1.05" vaporized=""/>
    <tripinfo id="bg_E_W.14" depart="336.00" departLane="749662140#0_0" departPos="5.10" departSpeed="0.00" departDelay="0.00" arrival="450.00" arrivalLane="978400303#0_2" arrivalPos="149.14" arrivalSpeed="19.87" duration="114.00" routeLength="297.03" waitingTime="84.00" waitingCount="1" stopTime="0.00" timeLoss="98.69" rerouteNo="0" devices="tripinfo_bg_E_W.14" vType="car_commuter" speedFactor="1.15" vaporized=""/>
    <tripinfo id="bg_E_W.15" depart="373.00" departLane="749662140#0_0" departPos="5.10" departSpeed="0.00" departDelay="0.00" arrival="451.00" arrivalLane="978400303#0_1" arrivalPos="149.14" arrivalSpeed="19.80" duration="78.00" routeLength="297.03" waitingTime="50.00" waitingCount="1" stopTime="0.00" timeLoss="63.14" rerouteNo="0" devices="tripinfo_bg_E_W.15" vType="car_commuter" speedFactor="1.06" vaporized=""/>
    <tripinfo id="bg_E_N.8" depart="299.00" departLane="749662140#0_0" departPos="5.10" departSpeed="0.00" departDelay="0.00" arrival="452.00" arrivalLane="749988360#0_2" arrivalPos="93.21" arrivalSpeed="19.31" duration="153.00" routeLength="241.59" waitingTime="126.00" waitingCount="1" stopTime="0.00" timeLoss="139.87" rerouteNo="0" devices="tripinfo_bg_E_N.8" vType="car_commuter" speedFactor="0.91" vaporized=""/>
    <tripinfo id="bg_E_S.4" depart="331.00" departLane="749662140#0_0" departPos="5.10" departSpeed="0.00" departDelay="0.00" arrival="452.00" arrivalLane="757092064#1_0" arrivalPos="81.46" arrivalSpeed="18.96" duration="121.00" routeLength="177.43" waitingTime="93.00" waitingCount="1" stopTime="0.00" timeLoss="110.97" rerouteNo="0" devices="tripinfo_bg_E_S.4" vType="car_commuter" speedFactor="1.10" vaporized=""/>
    <tripinfo id="bg_E_W.16" depart="375.00" departLane="749662140#0_0" departPos="5.10" departSpeed="0.00" departDelay="0.00" arrival="452.00" arrivalLane="978400303#0_2" arrivalPos="149.14" arrivalSpeed="19.65" duration="77.00" routeLength="297.03" waitingTime="48.00" waitingCount="1" stopTime="0.00" timeLoss="61.33" rerouteNo="0" devices="tripinfo_bg_E_W.16" vType="car_commuter" speedFactor="1.02" vaporized=""/>
    <tripinfo id="bg_E_W.13" depart="313.00" departLane="749662140#0_0" departPos="5.10" departSpeed="0.00" departDelay="0.00" arrival="453.00" arrivalLane="978400303#0_0" arrivalPos="149.14" arrivalSpeed="18.89" duration="140.00" routeLength="297.03" waitingTime="109.00" waitingCount="1" stopTime="0.00" timeLoss="124.27" rerouteNo="0" devices="tripinfo_bg_E_W.13" vType="car_commuter" speedFactor="1.06" vaporized=""/>
    <tripinfo id="bg_E_W.17" depart="384.00" departLane="749662140#0_0" departPos="5.10" departSpeed="0.00" departDelay="1.00" arrival="453.00" arrivalLane="978400303#0_1" arrivalPos="149.14" arrivalSpeed="19.65" duration="69.00" routeLength="297.03" waitingTime="40.00" waitingCount="1" stopTime="0.00" timeLoss="53.74" rerouteNo="0" devices="tripinfo_bg_E_W.17" vType="car_commuter" speedFactor="1.02" vaporized=""/>
    <tripinfo id="bg_E_W.18" depart="386.00" departLane="749662140#0_0" departPos="5.10" departSpeed="0.00" departDelay="1.00" arrival="453.00" arrivalLane="978400303#0_2" arrivalPos="149.14" arrivalSpeed="18.95" duration="67.00" routeLength="297.03" waitingTime="39.00" waitingCount="1" stopTime="0.00" timeLoss="51.97" rerouteNo="0" devices="tripinfo_bg_E_W.18" vType="car_commuter" speedFactor="0.90" vaporized=""/>
    <tripinfo id="bg_E_N.9" depart="346.00" departLane="749662140#0_0" departPos="5.10" departSpeed="0.00" departDelay="0.00" arrival="454.00" arrivalLane="749988360#0_2" arrivalPos="93.21" arrivalSpeed="19.71" duration="108.00" routeLength="241.59" waitingTime="82.00" waitingCount="1" stopTime="0.00" timeLoss="94.75" rerouteNo="0" devices="tripinfo_bg_E_N.9" vType="car_commuter" speedFactor="1.03" vaporized=""/>
    <tripinfo id="bg_E_S.5" depart="351.00" departLane="749662140#0_0" departPos="5.10" departSpeed="0.00" departDelay="0.00" arrival="454.00" arrivalLane="757092064#1_0" arrivalPos="81.46" arrivalSpeed="18.21" duration="103.00" routeLength="177.43" waitingTime="75.00" waitingCount="1" stopTime="0.00" timeLoss="93.42" rerouteNo="0" devices="tripinfo_bg_E_S.5" vType="car_commuter" speedFactor="1.05" vaporized=""/>
    <tripinfo id="bg_E_N.10" depart="364.00" departLane="749662140#0_0" departPos="5.10" departSpeed="0.00" departDelay="0.00" arrival="455.00" arrivalLane="749988360#0_2" arrivalPos="93.21" arrivalSpeed="19.38" duration="91.00" routeLength="241.59" waitingTime="66.00" waitingCount="1" stopTime="0.00" timeLoss="78.81" rerouteNo="0" devices="tripinfo_bg_E_N.10" vType="car_commuter" speedFactor="1.13" vaporized=""/>
    <tripinfo id="bg_E_W.19" depart="399.00" departLane="749662140#0_0" departPos="5.10" departSpeed="0.00" departDelay="0.00" arrival="455.00" arrivalLane="978400303#0_1" arrivalPos="149.14" arrivalSpeed="19.56" duration="56.00" routeLength="297.03" waitingTime="27.00" waitingCount="1" stopTime="0.00" timeLoss="40.45" rerouteNo="0" devices="tripinfo_bg_E_W.19" vType="car_commuter" speedFactor="0.91" vaporized=""/>
    <tripinfo id="bg_E_N.11" depart="410.00" departLane="749662140#0_0" departPos="5.10" departSpeed="0.00" departDelay="0.00" arrival="457.00" arrivalLane="749988360#0_2" arrivalPos="93.21" arrivalSpeed="19.41" duration="47.00" routeLength="241.59" waitingTime="22.00" waitingCount="1" stopTime="0.00" timeLoss="34.41" rerouteNo="0" devices="tripinfo_bg_E_N.11" vType="car_commuter" speedFactor="1.18" vaporized=""/>
    <tripinfo id="bg_E_S.6" depart="381.00" departLane="749662140#0_0" departPos="5.10" departSpeed="0.00" departDelay="0.00" arrival="458.00" arrivalLane="757092064#1_0" arrivalPos="81.46" arrivalSpeed="18.65" duration="77.00" routeLength="177.43" waitingTime="49.00" waitingCount="1" stopTime="0.00" timeLoss="66.22" rerouteNo="0" devices="tripinfo_bg_E_S.6" vType="car_commuter" speedFactor="0.88" vaporized=""/>
    <tripinfo id="bg_E_S.7" depart="440.00" departLane="749662140#0_0" departPos="5.10" departSpeed="0.00" departDelay="0.00" arrival="460.00" arrivalLane="757092064#1_0" arrivalPos="81.46" arrivalSpeed="17.52" duration="20.00" routeLength="177.43" waitingTime="0.00" waitingCount="0" stopTime="0.00" timeLoss="9.90" rerouteNo="0" devices="tripinfo_bg_E_S.7" vType="car_commuter" speedFactor="1.08" vaporized=""/>