<?xml version="1.0" encoding="UTF-8"?>

<!-- generated on 2025-06-02 22:05:44 by Eclipse SUMO GUI Version 1.22.0
<sumoConfiguration xmlns:xsi="http://www.w3.org/2001/XMLSchema-instance" xsi:noNamespaceSchemaLocation="http://sumo.dlr.de/xsd/sumoConfiguration.xsd">

    <input>
        <net-file value="osm.net.xml"/>
        <route-files value="route.rou.xml"/>
    </input>

    <output>
        <summary-output value="summary_eval_dqn4_ep1.xml"/>
        <tripinfo-output value="tripinfo_eval_dqn4_ep1.xml"/>
    </output>

    <time>
        <step-length value="0.2"/>
    </time>

    <processing>
        <time-to-teleport value="-1"/>
        <waiting-time-memory value="1000"/>
    </processing>

    <report>
        <no-step-log value="true"/>
    </report>

    <traci_server>
        <remote-port value="64929"/>
    </traci_server>

    <random_number>
        <seed value="24126"/>
    </random_number>

</sumoConfiguration>
-->

<tripinfos xmlns:xsi="http://www.w3.org/2001/XMLSchema-instance" xsi:noNamespaceSchemaLocation="http://sumo.dlr.de/xsd/tripinfo_file.xsd">
    <tripinfo id="bg_E_N.0" depart="5.20" departLane="749662140#0_0" departPos="5.10" departSpeed="0.00" departDelay="1.80" arrival="23.20" arrivalLane="749988360#0_2" arrivalPos="93.21" arrivalSpeed="19.84" duration="18.00" routeLength="241.59" waitingTime="0.00" waitingCount="0" stopTime="0.00" timeLoss="5.09" rerouteNo="0" devices="tripinfo_bg_E_N.0" vType="car_commuter" speedFactor="0.91" vaporized=""/>
    <tripinfo id="bg_E_W.0" depart="2.60" departLane="749662140#0_0" departPos="5.10" departSpeed="0.00" departDelay="0.00" arrival="26.80" arrivalLane="978400303#0_0" arrivalPos="149.14" arrivalSpeed="19.79" duration="24.20" routeLength="297.03" waitingTime="0.00" waitingCount="0" stopTime="0.00" timeLoss="9.26" rerouteNo="0" devices="tripinfo_bg_E_W.0" vType="car_commuter" speedFactor="0.93" vaporized=""/>
    <tripinfo id="bg_E_N.1" depart="11.40" departLane="749662140#0_0" departPos="5.10" departSpeed="0.00" departDelay="0.00" arrival="28.80" arrivalLane="749988360#0_2" arrivalPos="93.21" arrivalSpeed="19.89" duration="17.40" routeLength="241.59" waitingTime="0.00" waitingCount="0" stopTime="0.00" timeLoss="5.08" rerouteNo="0" devices="tripinfo_bg_E_N.1" vType="car_commuter" speedFactor="1.06" vaporized=""/>
    <tripinfo id="bg_E_W.1" depart="46.00" departLane="749662140#0_0" departPos="5.10" departSpeed="0.00" departDelay="0.00" arrival="66.00" arrivalLane="978400303#0_0" arrivalPos="149.14" arrivalSpeed="19.99" duration="20.00" routeLength="297.03" waitingTime="0.00" waitingCount="0" stopTime="0.00" timeLoss="5.05" rerouteNo="0" devices="tripinfo_bg_E_W.1" vType="car_commuter" speedFactor="1.12" vaporized=""/>
    <tripinfo id="bg_E_S.0" depart="56.80" departLane="749662140#0_0" departPos="5.10" departSpeed="0.00" departDelay="0.00" arrival="175.60" arrivalLane="757092064#1_0" arrivalPos="81.46" arrivalSpeed="18.98" duration="118.80" routeLength="177.43" waitingTime="93.60" waitingCount="1" stopTime="0.00" timeLoss="108.80" rerouteNo="0" devices="tripinfo_bg_E_S.0" vType="car_commuter" speedFactor="1.04" vaporized=""/>
    <tripinfo id="bg_E_N.2" depart="80.80" departLane="749662140#0_0" departPos="5.10" departSpeed="0.00" departDelay="0.60" arrival="176.80" arrivalLane="749988360#0_2" arrivalPos="93.21" arrivalSpeed="19.95" duration="96.00" routeLength="241.59" waitingTime="72.20" waitingCount="1" stopTime="0.00" timeLoss="82.97" rerouteNo="0" devices="tripinfo_bg_E_N.2" vType="car_commuter" speedFactor="0.90" vaporized=""/>
    <tripinfo id="bg_E_S.1" depart="88.60" departLane="749662140#0_0" departPos="5.10" departSpeed="0.00" departDelay="0.00" arrival="177.80" arrivalLane="757092064#1_0" arrivalPos="81.46" arrivalSpeed="19.08" duration="89.20" routeLength="177.43" waitingTime="62.80" waitingCount="1" stopTime="0.00" timeLoss="79.03" rerouteNo="0" devices="tripinfo_bg_E_S.1" vType="car_commuter" speedFactor="0.99" vaporized=""/>
    <tripinfo id="bg_E_W.4" depart="75.40" departLane="749662140#0_0" departPos="5.10" departSpeed="0.00" departDelay="0.00" arrival="179.60" arrivalLane="978400303#0_2" arrivalPos="149.14" arrivalSpeed="19.80" duration="104.20" routeLength="297.03" waitingTime="77.60" waitingCount="1" stopTime="0.00" timeLoss="89.24" rerouteNo="0" devices="tripinfo_bg_E_W.4" vType="car_commuter" speedFactor="0.92" vaporized=""/>
    <tripinfo id="bg_E_W.3" depart="72.20" departLane="749662140#0_0" departPos="5.10" departSpeed="0.00" departDelay="0.00" arrival="179.80" arrivalLane="978400303#0_1" arrivalPos="149.14" arrivalSpeed="19.84" duration="107.60" routeLength="297.03" waitingTime="80.80" waitingCount="1" stopTime="0.00" timeLoss="92.58" rerouteNo="0" devices="tripinfo_bg_E_W.3" vType="car_commuter" speedFactor="0.98" vaporized=""/>
    <tripinfo id="bg_E_W.2" depart="52.80" departLane="749662140#0_0" departPos="5.10" departSpeed="0.00" departDelay="0.00" arrival="180.00" arrivalLane="978400303#0_0" arrivalPos="149.14" arrivalSpeed="19.87" duration="127.20" routeLength="297.03" waitingTime="100.20" waitingCount="1" stopTime="0.00" timeLoss="112.20" rerouteNo="0" devices="tripinfo_bg_E_W.2" vType="car_commuter" speedFactor="0.91" vaporized=""/>
    <tripinfo id="bg_E_W.9" depart="130.00" departLane="749662140#0_0" departPos="5.10" departSpeed="0.00" departDelay="0.00" arrival="180.80" arrivalLane="978400303#0_3" arrivalPos="149.14" arrivalSpeed="19.79" duration="50.80" routeLength="297.03" waitingTime="20.40" waitingCount="1" stopTime="0.00" timeLoss="35.88" rerouteNo="0" devices="tripinfo_bg_E_W.9" vType="car_commuter" speedFactor="1.18" vaporized=""/>
    <tripinfo id="bg_E_W.5" depart="78.00" departLane="749662140#0_0" departPos="5.10" departSpeed="0.00" departDelay="0.00" arrival="181.00" arrivalLane="978400303#0_1" arrivalPos="149.14" arrivalSpeed="19.75" duration="103.00" routeLength="297.03" waitingTime="72.60" waitingCount="1" stopTime="0.00" timeLoss="88.10" rerouteNo="0" devices="tripinfo_bg_E_W.5" vType="car_commuter" speedFactor="0.95" vaporized=""/>
    <tripinfo id="bg_E_W.6" depart="91.40" departLane="749662140#0_0" departPos="5.10" departSpeed="0.00" departDelay="0.40" arrival="181.00" arrivalLane="978400303#0_2" arrivalPos="149.14" arrivalSpeed="19.97" duration="89.60" routeLength="297.03" waitingTime="59.40" waitingCount="1" stopTime="0.00" timeLoss="74.63" rerouteNo="0" devices="tripinfo_bg_E_W.6" vType="car_commuter" speedFactor="1.03" vaporized=""/>
    <tripinfo id="bg_E_W.12" depart="147.40" departLane="749662140#0_0" departPos="5.10" departSpeed="0.00" departDelay="2.60" arrival="182.20" arrivalLane="978400303#0_3" arrivalPos="149.14" arrivalSpeed="19.87" duration="34.80" routeLength="297.03" waitingTime="3.20" waitingCount="1" stopTime="0.00" timeLoss="19.85" rerouteNo="0" devices="tripinfo_bg_E_W.12" vType="car_commuter" speedFactor="1.21" vaporized=""/>
    <tripinfo id="bg_E_W.7" depart="97.00" departLane="749662140#0_0" departPos="5.10" departSpeed="0.00" departDelay="0.00" arrival="182.40" arrivalLane="978400303#0_1" arrivalPos="149.14" arrivalSpeed="19.83" duration="85.40" routeLength="297.03" waitingTime="54.60" waitingCount="1" stopTime="0.00" timeLoss="70.41" rerouteNo="0" devices="tripinfo_bg_E_W.7" vType="car_commuter" speedFactor="1.09" vaporized=""/>
    <tripinfo id="bg_E_W.10" depart="143.40" departLane="749662140#0_0" departPos="5.10" departSpeed="0.00" departDelay="0.00" arrival="182.40" arrivalLane="978400303#0_2" arrivalPos="149.14" arrivalSpeed="19.87" duration="39.00" routeLength="297.03" waitingTime="8.20" waitingCount="1" stopTime="0.00" timeLoss="23.98" rerouteNo="0" devices="tripinfo_bg_E_W.10" vType="car_commuter" speedFactor="1.04" vaporized=""/>
    <tripinfo id="bg_E_S.2" depart="133.20" departLane="749662140#0_0" departPos="5.10" departSpeed="0.00" departDelay="0.00" arrival="319.60" arrivalLane="757092064#1_0" arrivalPos="81.46" arrivalSpeed="18.73" duration="186.40" routeLength="177.43" waitingTime="153.20" waitingCount="2" stopTime="0.00" timeLoss="176.46" rerouteNo="0" devices="tripinfo_bg_E_S.2" vType="car_commuter" speedFactor="1.13" vaporized=""/>
    <tripinfo id="bg_E_N.3" depart="177.60" departLane="749662140#0_0" departPos="5.10" departSpeed="0.00" departDelay="0.00" arrival="320.80" arrivalLane="749988360#0_2" arrivalPos="93.21" arrivalSpeed="19.96" duration="143.20" routeLength="241.59" waitingTime="119.60" waitingCount="1" stopTime="0.00" timeLoss="130.88" rerouteNo="0" devices="tripinfo_bg_E_N.3" vType="car_commuter" speedFactor="1.09" vaporized=""/>
    <tripinfo id="bg_E_S.3" depart="195.40" departLane="749662140#0_0" departPos="5.10" departSpeed="0.00" departDelay="0.00" arrival="321.80" arrivalLane="757092064#1_0" arrivalPos="81.46" arrivalSpeed="18.78" duration="126.40" routeLength="177.43" waitingTime="100.60" waitingCount="1" stopTime="0.00" timeLoss="116.22" rerouteNo="0" devices="tripinfo_bg_E_S.3" vType="car_commuter" speedFactor="0.99" vaporized=""/>
    <tripinfo id="bg_E_N.4" depart="235.20" departLane="749662140#0_0" departPos="5.10" departSpeed="0.00" departDelay="0.00" arrival="322.20" arrivalLane="749988360#0_2" arrivalPos="93.21" arrivalSpeed="19.77" duration="87.00" routeLength="241.59" waitingTime="59.60" waitingCount="1" stopTime="0.00" timeLoss="74.12" rerouteNo="0" devices="tripinfo_bg_E_N.4" vType="car_commuter" speedFactor="0.93" vaporized=""/>
    <tripinfo id="bg_E_N.5" depart="236.60" departLane="749662140#0_0" departPos="5.10" departSpeed="0.00" departDelay="0.00" arrival="323.40" arrivalLane="749988360#0_2" arrivalPos="93.21" arrivalSpeed="19.74" duration="86.80" routeLength="241.59" waitingTime="57.60" waitingCount="1" stopTime="0.00" timeLoss="74.28" rerouteNo="0" devices="tripinfo_bg_E_N.5" vType="car_commuter" speedFactor="1.01" vaporized=""/>
    <tripinfo id="bg_E_W.11" depart="144.80" departLane="749662140#0_0" departPos="5.10" departSpeed="0.00" departDelay="1.00" arrival="323.60" arrivalLane="978400303#0_1" arrivalPos="149.14" arrivalSpeed="19.87" duration="178.80" routeLength="297.03" waitingTime="144.40" waitingCount="2" stopTime="0.00" timeLoss="163.93" rerouteNo="0" devices="tripinfo_bg_E_W.11" vType="car_commuter" speedFactor="1.03" vaporized=""/>
    <tripinfo id="bg_E_W.8" depart="101.20" departLane="749662140#0_0" departPos="5.10" departSpeed="0.00" departDelay="0.00" arrival="323.80" arrivalLane="978400303#0_0" arrivalPos="149.14" arrivalSpeed="19.95" duration="222.60" routeLength="297.03" waitingTime="187.40" waitingCount="2" stopTime="0.00" timeLoss="207.64" rerouteNo="0" devices="tripinfo_bg_E_W.8" vType="car_commuter" speedFactor="0.97" vaporized=""/>
    <tripinfo id="bg_E_W.13" depart="150.00" departLane="749662140#0_0" departPos="5.10" departSpeed="0.00" departDelay="0.00" arrival="323.80" arrivalLane="978400303#0_2" arrivalPos="149.14" arrivalSpeed="19.77" duration="173.80" routeLength="297.03" waitingTime="139.00" waitingCount="2" stopTime="0.00" timeLoss="158.78" rerouteNo="0" devices="tripinfo_bg_E_W.13" vType="car_commuter" speedFactor="1.01" vaporized=""/>
    <tripinfo id="bg_E_W.14" depart="152.60" departLane="749662140#0_0" departPos="5.10" departSpeed="0.00" departDelay="2.20" arrival="325.00" arrivalLane="978400303#0_1" arrivalPos="149.14" arrivalSpeed="19.85" duration="172.40" routeLength="297.03" waitingTime="134.20" waitingCount="2" stopTime="0.00" timeLoss="157.45" rerouteNo="0" devices="tripinfo_bg_E_W.14" vType="car_commuter" speedFactor="1.02" vaporized=""/>
    <tripinfo id="bg_E_W.15" depart="205.40" departLane="749662140#0_0" departPos="5.10" departSpeed="0.00" departDelay="0.00" arrival="325.00" arrivalLane="978400303#0_2" arrivalPos="149.14" arrivalSpeed="19.81" duration="119.60" routeLength="297.03" waitingTime="89.00" waitingCount="1" stopTime="0.00" timeLoss="104.70" rerouteNo="0" devices="tripinfo_bg_E_W.15" vType="car_commuter" speedFactor="0.96" vaporized=""/>
    <tripinfo id="bg_E_W.16" depart="242.60" departLane="749662140#0_0" departPos="5.10" departSpeed="0.00" departDelay="0.00" arrival="326.40" arrivalLane="978400303#0_1" arrivalPos="149.14" arrivalSpeed="19.80" duration="83.80" routeLength="297.03" waitingTime="53.00" waitingCount="1" stopTime="0.00" timeLoss="68.84" rerouteNo="0" devices="tripinfo_bg_E_W.16" vType="car_commuter" speedFactor="0.93" vaporized=""/>
    <tripinfo id="bg_E_W.17" depart="246.80" departLane="749662140#0_0" departPos="5.10" departSpeed="0.00" departDelay="0.00" arrival="326.40" arrivalLane="978400303#0_2" arrivalPos="149.14" arrivalSpeed="19.76" duration="79.60" routeLength="297.03" waitingTime="48.60" waitingCount="1" stopTime="0.00" timeLoss="64.62" rerouteNo="0" devices="tripinfo_bg_E_W.17" vType="car_commuter" speedFactor="1.07" vaporized=""/>
    <tripinfo id="bg_E_S.4" depart="227.60" departLane="749662140#0_0" departPos="5.10" departSpeed="0.00" departDelay="0.00" arrival="456.40" arrivalLane="757092064#1_0" arrivalPos="81.46" arrivalSpeed="18.29" duration="228.80" routeLength="177.43" waitingTime="199.40" waitingCount="2" stopTime="0.00" timeLoss="218.44" rerouteNo="0" devices="tripinfo_bg_E_S.4" vType="car_commuter" speedFactor="0.82" vaporized=""/>
    <tripinfo id="bg_E_N.6" depart="306.60" departLane="749662140#0_0" departPos="5.10" departSpeed="0.00" departDelay="0.00" arrival="458.80" arrivalLane="749988360#0_2" arrivalPos="93.21" arrivalSpeed="19.95" duration="152.20" routeLength="241.59" waitingTime="128.40" waitingCount="1" stopTime="0.00" timeLoss="139.47" rerouteNo="0" devices="tripinfo_bg_E_N.6" vType="car_commuter" speedFactor="0.97" vaporized=""/>
    <tripinfo id="bg_E_N.7" depart="407.40" departLane="749662140#0_0" departPos="5.10" departSpeed="0.00" departDelay="0.00" arrival="461.20" arrivalLane="749988360#0_2" arrivalPos="93.21" arrivalSpeed="19.85" duration="53.80" routeLength="241.59" waitingTime="26.20" waitingCount="1" stopTime="0.00" timeLoss="41.12" rerouteNo="0" devices="tripinfo_bg_E_N.7" vType="car_commuter" speedFactor="0.98" vaporized=""/>
    <tripinfo id="bg_E_W.18" depart="279.40" departLane="749662140#0_0" departPos="5.10" departSpeed="0.00" departDelay="0.00" arrival="461.60" arrivalLane="978400303#0_1" arrivalPos="149.14" arrivalSpeed="19.84" duration="182.20" routeLength="297.03" waitingTime="147.60" waitingCount="2" stopTime="0.00" timeLoss="167.20" rerouteNo="0" devices="tripinfo_bg_E_W.18" vType="car_commuter" speedFactor="0.90" vaporized=""/>
    <tripinfo id="bg_E_W.20" depart="297.00" departLane="749662140#0_0" departPos="5.10" departSpeed="0.00" departDelay="0.40" arrival="461.80" arrivalLane="978400303#0_2" arrivalPos="149.14" arrivalSpeed="19.96" duration="164.80" routeLength="297.03" waitingTime="130.20" waitingCount="1" stopTime="0.00" timeLoss="149.81" rerouteNo="0" devices="tripinfo_bg_E_W.20" vType="car_commuter" speedFactor="1.01" vaporized=""/>
    <tripinfo id="bg_E_W.26" depart="373.60" departLane="749662140#0_0" departPos="5.10" departSpeed="0.00" departDelay="0.00" arrival="462.80" arrivalLane="978400303#0_3" arrivalPos="149.14" arrivalSpeed="19.90" duration="89.20" routeLength="297.03" waitingTime="58.80" waitingCount="1" stopTime="0.00" timeLoss="74.27" rerouteNo="0" devices="tripinfo_bg_E_W.26" vType="car_commuter" speedFactor="0.95" vaporized=""/>
    <tripinfo id="bg_E_W.21" depart="299.60" departLane="749662140#0_0" departPos="5.10" departSpeed="0.00" departDelay="2.00" arrival="463.00" arrivalLane="978400303#0_1" arrivalPos="149.14" arrivalSpeed="19.98" duration="163.40" routeLength="297.03" waitingTime="127.00" waitingCount="1" stopTime="0.00" timeLoss="148.53" rerouteNo="0" devices="tripinfo_bg_E_W.21" vType="car_commuter" speedFactor="1.14" vaporized=""/>
    <tripinfo id="bg_E_W.19" depart="294.20" departLane="749662140#0_0" departPos="5.10" departSpeed="0.00" departDelay="0.00" arrival="463.20" arrivalLane="978400303#0_0" arrivalPos="149.14" arrivalSpeed="19.77" duration="169.00" routeLength="297.03" waitingTime="130.60" waitingCount="2" stopTime="0.00" timeLoss="154.15" rerouteNo="0" devices="tripinfo_bg_E_W.19" vType="car_commuter" speedFactor="1.01" vaporized=""/>
    <tripinfo id="bg_E_W.22" depart="302.80" departLane="749662140#0_0" departPos="5.10" departSpeed="0.00" departDelay="0.00" arrival="463.20" arrivalLane="978400303#0_2" arrivalPos="149.14" arrivalSpeed="19.88" duration="160.40" routeLength="297.03" waitingTime="122.80" waitingCount="1" stopTime="0.00" timeLoss="145.41" rerouteNo="0" devices="tripinfo_bg_E_W.22" vType="car_commuter" speedFactor="1.02" vaporized=""/>
    <tripinfo id="bg_E_W.24" depart="358.40" departLane="749662140#0_0" departPos="5.10" departSpeed="0.00" departDelay="0.00" arrival="464.40" arrivalLane="978400303#0_1" arrivalPos="149.14" arrivalSpeed="19.86" duration="106.00" routeLength="297.03" waitingTime="75.00" waitingCount="1" stopTime="0.00" timeLoss="91.05" rerouteNo="0" devices="tripinfo_bg_E_W.24" vType="car_commuter" speedFactor="1.16" vaporized=""/>
    <tripinfo id="bg_E_W.23" depart="351.40" departLane="749662140#0_0" departPos="5.10" departSpeed="0.00" departDelay="0.00" arrival="464.60" arrivalLane="978400303#0_0" arrivalPos="149.14" arrivalSpeed="19.75" duration="113.20" routeLength="297.03" waitingTime="82.00" waitingCount="1" stopTime="0.00" timeLoss="98.33" rerouteNo="0" devices="tripinfo_bg_E_W.23" vType="car_commuter" speedFactor="0.89" vaporized=""/>
    <tripinfo id="bg_E_W.27" depart="383.60" departLane="749662140#0_0" departPos="5.10" departSpeed="0.00" departDelay="0.00" arrival="464.60" arrivalLane="978400303#0_2" arrivalPos="149.14" arrivalSpeed="19.90" duration="81.00" routeLength="297.03" waitingTime="50.00" waitingCount="1" stopTime="0.00" timeLoss="65.96" rerouteNo="0" devices="tripinfo_bg_E_W.27" vType="car_commuter" speedFactor="0.92" vaporized=""/>
    <tripinfo id="bg_E_S.5" depart="475.00" departLane="749662140#0_0" departPos="5.10" departSpeed="0.00" departDelay="0.00" arrival="649.40" arrivalLane="757092064#1_0" arrivalPos="81.46" arrivalSpeed="18.83" duration="174.40" routeLength="177.43" waitingTime="150.00" waitingCount="1" stopTime="0.00" timeLoss="164.53" rerouteNo="0" devices="tripinfo_bg_E_S.5" vType="car_commuter" speedFactor="1.21" vaporized=""/>
    <tripinfo id="bg_E_N.8" depart="429.40" departLane="749662140#0_0" departPos="5.10" departSpeed="0.00" departDelay="0.00" arrival="651.00" arrivalLane="749988360#0_2" arrivalPos="93.21" arrivalSpeed="19.91" duration="221.60" routeLength="241.59" waitingTime="189.80" waitingCount="2" stopTime="0.00" timeLoss="208.47" rerouteNo="0" devices="tripinfo_bg_E_N.8" vType="car_commuter" speedFactor="0.89" vaporized=""/>
    <tripinfo id="bg_E_N.9" depart="436.80" departLane="749662140#0_0" departPos="5.10" departSpeed="0.00" departDelay="0.00" arrival="652.20" arrivalLane="749988360#0_2" arrivalPos="93.21" arrivalSpeed="19.88" duration="215.40" routeLength="241.59" waitingTime="181.00" waitingCount="1" stopTime="0.00" timeLoss="202.95" rerouteNo="0" devices="tripinfo_bg_E_N.9" vType="car_commuter" speedFactor="1.05" vaporized=""/>
    <tripinfo id="bg_E_W.28" depart="413.60" departLane="749662140#0_0" departPos="5.10" departSpeed="0.00" departDelay="0.00" arrival="653.40" arrivalLane="978400303#0_1" arrivalPos="149.14" arrivalSpeed="19.81" duration="239.80" routeLength="297.03" waitingTime="205.40" waitingCount="2" stopTime="0.00" timeLoss="224.87" rerouteNo="0" devices="tripinfo_bg_E_W.28" vType="car_commuter" speedFactor="0.89" vaporized=""/>
    <tripinfo id="bg_E_N.10" depart="447.80" departLane="749662140#0_0" departPos="5.10" departSpeed="0.00" departDelay="0.00" arrival="653.40" arrivalLane="749988360#0_2" arrivalPos="93.21" arrivalSpeed="19.80" duration="205.60" routeLength="241.59" waitingTime="177.40" waitingCount="1" stopTime="0.00" timeLoss="193.12" rerouteNo="0" devices="tripinfo_bg_E_N.10" vType="car_commuter" speedFactor="1.02" vaporized=""/>
    <tripinfo id="bg_E_W.25" depart="360.80" departLane="749662140#0_0" departPos="5.10" departSpeed="0.00" departDelay="0.60" arrival="653.60" arrivalLane="978400303#0_0" arrivalPos="149.14" arrivalSpeed="19.75" duration="292.80" routeLength="297.03" waitingTime="257.80" waitingCount="2" stopTime="0.00" timeLoss="277.93" rerouteNo="0" devices="tripinfo_bg_E_W.25" vType="car_commuter" speedFactor="1.16" vaporized=""/>
    <tripinfo id="bg_E_W.29" depart="496.80" departLane="749662140#0_0" departPos="5.10" departSpeed="0.00" departDelay="0.00" arrival="653.80" arrivalLane="978400303#0_2" arrivalPos="149.14" arrivalSpeed="19.90" duration="157.00" routeLength="297.03" waitingTime="130.40" waitingCount="1" stopTime="0.00" timeLoss="142.08" rerouteNo="0" devices="tripinfo_bg_E_W.29" vType="car_commuter" speedFactor="1.06" vaporized=""/>
    <tripinfo id="bg_E_W.30" depart="526.00" departLane="749662140#0_0" departPos="5.10" departSpeed="0.00" departDelay="0.00" arrival="654.80" arrivalLane="978400303#0_1" arrivalPos="149.14" arrivalSpeed="19.85" duration="128.80" routeLength="297.03" waitingTime="98.40" waitingCount="1" stopTime="0.00" timeLoss="113.89" rerouteNo="0" devices="tripinfo_bg_E_W.30" vType="car_commuter" speedFactor="1.00" vaporized=""/>
    <tripinfo id="bg_E_W.32" depart="570.80" departLane="749662140#0_0" departPos="5.10" departSpeed="0.00" departDelay="0.00" arrival="655.20" arrivalLane="978400303#0_2" arrivalPos="149.14" arrivalSpeed="19.76" duration="84.40" routeLength="297.03" waitingTime="53.80" waitingCount="1" stopTime="0.00" timeLoss="69.41" rerouteNo="0" devices="tripinfo_bg_E_W.32" vType="car_commuter" speedFactor="1.00" vaporized=""/>
    <tripinfo id="bg_E_W.31" depart="568.20" departLane="749662140#0_0" departPos="5.10" departSpeed="0.00" departDelay="0.00" arrival="656.20" arrivalLane="978400303#0_0" arrivalPos="149.14" arrivalSpeed="19.79" duration="88.00" routeLength="297.03" waitingTime="57.60" waitingCount="1" stopTime="0.00" timeLoss="73.11" rerouteNo="0" devices="tripinfo_bg_E_W.31" vType="car_commuter" speedFactor="0.86" vaporized=""/>
    <tripinfo id="bg_E_W.33" depart="578.60" departLane="749662140#0_0" departPos="5.10" departSpeed="0.00" departDelay="0.00" arrival="656.20" arrivalLane="978400303#0_1" arrivalPos="149.14" arrivalSpeed="19.85" duration="77.60" routeLength="297.03" waitingTime="47.00" waitingCount="1" stopTime="0.00" timeLoss="62.65" rerouteNo="0" devices="tripinfo_bg_E_W.33" vType="car_commuter" speedFactor="1.04" vaporized=""/>
    <tripinfo id="bg_E_W.35" depart="628.80" departLane="749662140#0_0" departPos="5.10" departSpeed="0.00" departDelay="0.00" arrival="656.40" arrivalLane="978400303#0_2" arrivalPos="149.14" arrivalSpeed="19.88" duration="27.60" routeLength="297.03" waitingTime="0.00" waitingCount="0" stopTime="0.00" timeLoss="12.73" rerouteNo="0" devices="tripinfo_bg_E_W.35" vType="car_commuter" speedFactor="0.95" vaporized=""/>
