<?xml version="1.0" encoding="UTF-8"?>

<!-- generated on 2025-06-02 23:35:35 by Eclipse SUMO sumo Version 1.22.0
<sumoConfiguration xmlns:xsi="http://www.w3.org/2001/XMLSchema-instance" xsi:noNamespaceSchemaLocation="http://sumo.dlr.de/xsd/sumoConfiguration.xsd">

    <input>
        <net-file value="osm.net.xml"/>
        <route-files value="route.rou.xml"/>
    </input>

    <output>
        <summary-output value="summary_rule_based.xml"/>
        <tripinfo-output value="tripinfo_rule_based.xml"/>
    </output>

    <time>
        <begin value="0"/>
        <end value="3600"/>
    </time>

    <processing>
        <time-to-teleport value="-1"/>
        <waiting-time-memory value="1000"/>
    </processing>

    <report>
        <verbose value="true"/>
        <duration-log.statistics value="true"/>
        <no-step-log value="true"/>
    </report>

    <traci_server>
        <remote-port value="61145"/>
    </traci_server>

    <random_number>
        <seed value="43"/>
    </random_number>

</sumoConfiguration>
-->

<tripinfos xmlns:xsi="http://www.w3.org/2001/XMLSchema-instance" xsi:noNamespaceSchemaLocation="http://sumo.dlr.de/xsd/tripinfo_file.xsd">
    <tripinfo id="commuter_N_S.1" depart="7.00" departLane="754598165#2_0" departPos="5.10" departSpeed="0.00" departDelay="1.00" arrival="23.00" arrivalLane="757092064#1_1" arrivalPos="81.46" arrivalSpeed="19.97" duration="16.00" routeLength="213.54" waitingTime="0.00" waitingCount="0" stopTime="0.00" timeLoss="4.76" rerouteNo="0" devices="tripinfo_commuter_N_S.1" vType="car_commuter" speedFactor="1.01" vaporized=""/>
    <tripinfo id="commuter_N_S.0" depart="0.00" departLane="754598165#2_0" departPos="5.10" departSpeed="0.00" departDelay="0.00" arrival="25.00" arrivalLane="757092064#1_0" arrivalPos="81.46" arrivalSpeed="19.02" duration="25.00" routeLength="213.54" waitingTime="4.00" waitingCount="1" stopTime="0.00" timeLoss="14.28" rerouteNo="0" devices="tripinfo_commuter_N_S.0" vType="car_commuter" speedFactor="0.90" vaporized=""/>
    <tripinfo id="commuter_N_W.0" depart="6.00" departLane="754598165#2_0" departPos="5.10" departSpeed="0.00" departDelay="2.00" arrival="28.00" arrivalLane="978400303#0_3" arrivalPos="149.14" arrivalSpeed="19.16" duration="22.00" routeLength="273.05" waitingTime="0.00" waitingCount="0" stopTime="0.00" timeLoss="6.37" rerouteNo="0" devices="tripinfo_commuter_N_W.0" vType="car_commuter" speedFactor="0.94" vaporized=""/>
    <tripinfo id="bg_E_S.0" depart="3.00" departLane="749662140#0_0" departPos="5.10" departSpeed="0.00" departDelay="0.00" arrival="31.00" arrivalLane="757092064#1_0" arrivalPos="81.46" arrivalSpeed="18.65" duration="28.00" routeLength="177.43" waitingTime="5.00" waitingCount="2" stopTime="0.00" timeLoss="17.91" rerouteNo="0" devices="tripinfo_bg_E_S.0" vType="car_commuter" speedFactor="0.95" vaporized=""/>
    <tripinfo id="commuter_N_E.0" depart="3.00" departLane="754598165#2_0" departPos="5.10" departSpeed="0.00" departDelay="1.00" arrival="34.00" arrivalLane="563175146#1_0" arrivalPos="228.90" arrivalSpeed="19.54" duration="31.00" routeLength="331.30" waitingTime="1.00" waitingCount="1" stopTime="0.00" timeLoss="12.93" rerouteNo="0" devices="tripinfo_commuter_N_E.0" vType="car_commuter" speedFactor="1.02" vaporized=""/>
    <tripinfo id="bg_E_W.0" depart="19.00" departLane="749662140#0_0" departPos="5.10" departSpeed="0.00" departDelay="0.00" arrival="39.00" arrivalLane="978400303#0_0" arrivalPos="149.14" arrivalSpeed="19.76" duration="20.00" routeLength="297.03" waitingTime="0.00" waitingCount="0" stopTime="0.00" timeLoss="4.45" rerouteNo="0" devices="tripinfo_bg_E_W.0" vType="car_commuter" speedFactor="0.96" vaporized=""/>
    <tripinfo id="commuter_N_S.4" depart="25.00" departLane="754598165#2_0" departPos="5.10" departSpeed="0.00" departDelay="0.00" arrival="44.00" arrivalLane="757092064#1_2" arrivalPos="81.46" arrivalSpeed="19.54" duration="19.00" routeLength="213.54" waitingTime="0.00" waitingCount="0" stopTime="0.00" timeLoss="7.78" rerouteNo="0" devices="tripinfo_commuter_N_S.4" vType="car_commuter" speedFactor="0.97" vaporized=""/>
    <tripinfo id="commuter_N_S.2" depart="10.00" departLane="754598165#2_0" departPos="5.10" departSpeed="0.00" departDelay="0.00" arrival="46.00" arrivalLane="757092064#1_0" arrivalPos="81.46" arrivalSpeed="19.74" duration="36.00" routeLength="213.54" waitingTime="12.00" waitingCount="1" stopTime="0.00" timeLoss="24.40" rerouteNo="0" devices="tripinfo_commuter_N_S.2" vType="car_commuter" speedFactor="1.08" vaporized=""/>
    <tripinfo id="commuter_N_S.3" depart="22.00" departLane="754598165#2_0" departPos="5.10" departSpeed="0.00" departDelay="0.00" arrival="46.00" arrivalLane="757092064#1_1" arrivalPos="81.46" arrivalSpeed="19.53" duration="24.00" routeLength="213.54" waitingTime="0.00" waitingCount="0" stopTime="0.00" timeLoss="12.71" rerouteNo="0" devices="tripinfo_commuter_N_S.3" vType="car_commuter" speedFactor="1.08" vaporized=""/>
    <tripinfo id="commuter_N_S.5" depart="34.00" departLane="754598165#2_0" departPos="5.10" departSpeed="0.00" departDelay="0.00" arrival="50.00" arrivalLane="757092064#1_0" arrivalPos="81.46" arrivalSpeed="19.32" duration="16.00" routeLength="213.54" waitingTime="0.00" waitingCount="0" stopTime="0.00" timeLoss="5.03" rerouteNo="0" devices="tripinfo_commuter_N_S.5" vType="car_commuter" speedFactor="1.11" vaporized=""/>
    <tripinfo id="commuter_N_W.1" depart="29.00" departLane="754598165#2_0" departPos="5.10" departSpeed="0.00" departDelay="0.00" arrival="52.00" arrivalLane="978400303#0_3" arrivalPos="149.14" arrivalSpeed="19.48" duration="23.00" routeLength="273.05" waitingTime="0.00" waitingCount="0" stopTime="0.00" timeLoss="6.51" rerouteNo="0" devices="tripinfo_commuter_N_W.1" vType="car_commuter" speedFactor="0.83" vaporized=""/>
    <tripinfo id="commuter_N_S.6" depart="43.00" departLane="754598165#2_0" departPos="5.10" departSpeed="0.00" departDelay="2.00" arrival="59.00" arrivalLane="757092064#1_0" arrivalPos="81.46" arrivalSpeed="19.33" duration="16.00" routeLength="213.54" waitingTime="0.00" waitingCount="0" stopTime="0.00" timeLoss="4.95" rerouteNo="0" devices="tripinfo_commuter_N_S.6" vType="car_commuter" speedFactor="0.95" vaporized=""/>
    <tripinfo id="commuter_N_S.7" depart="47.00" departLane="754598165#2_0" departPos="5.10" departSpeed="0.00" departDelay="4.00" arrival="63.00" arrivalLane="757092064#1_0" arrivalPos="81.46" arrivalSpeed="19.20" duration="16.00" routeLength="213.54" waitingTime="0.00" waitingCount="0" stopTime="0.00" timeLoss="4.67" rerouteNo="0" devices="tripinfo_commuter_N_S.7" vType="car_commuter" speedFactor="1.10" vaporized=""/>
    <tripinfo id="commuter_N_E.1" depart="40.00" departLane="754598165#2_0" departPos="5.10" departSpeed="0.00" departDelay="0.00" arrival="65.00" arrivalLane="563175146#1_0" arrivalPos="228.90" arrivalSpeed="19.06" duration="25.00" routeLength="331.30" waitingTime="0.00" waitingCount="0" stopTime="0.00" timeLoss="6.46" rerouteNo="0" devices="tripinfo_commuter_N_E.1" vType="car_commuter" speedFactor="0.82" vaporized=""/>
    <tripinfo id="commuter_N_S.8" depart="51.00" departLane="754598165#2_0" departPos="5.10" departSpeed="0.00" departDelay="4.00" arrival="67.00" arrivalLane="757092064#1_0" arrivalPos="81.46" arrivalSpeed="19.56" duration="16.00" routeLength="213.54" waitingTime="0.00" waitingCount="0" stopTime="0.00" timeLoss="4.79" rerouteNo="0" devices="tripinfo_commuter_N_S.8" vType="car_commuter" speedFactor="1.04" vaporized=""/>
    <tripinfo id="commuter_N_W.2" depart="46.00" departLane="754598165#2_0" departPos="5.10" departSpeed="0.00" departDelay="5.00" arrival="68.00" arrivalLane="978400303#0_3" arrivalPos="149.14" arrivalSpeed="19.09" duration="22.00" routeLength="273.05" waitingTime="0.00" waitingCount="0" stopTime="0.00" timeLoss="6.23" rerouteNo="0" devices="tripinfo_commuter_N_W.2" vType="car_commuter" speedFactor="0.92" vaporized=""/>
    <tripinfo id="commuter_N_W.3" depart="50.00" departLane="754598165#2_0" departPos="5.10" departSpeed="0.00" departDelay="6.00" arrival="70.00" arrivalLane="978400303#0_3" arrivalPos="149.14" arrivalSpeed="18.76" duration="20.00" routeLength="273.05" waitingTime="0.00" waitingCount="0" stopTime="0.00" timeLoss="5.25" rerouteNo="0" devices="tripinfo_commuter_N_W.3" vType="car_commuter" speedFactor="1.10" vaporized=""/>
    <tripinfo id="commuter_N_S.9" depart="54.00" departLane="754598165#2_0" departPos="5.10" departSpeed="0.00" departDelay="3.00" arrival="71.00" arrivalLane="757092064#1_0" arrivalPos="81.46" arrivalSpeed="19.76" duration="17.00" routeLength="213.54" waitingTime="0.00" waitingCount="0" stopTime="0.00" timeLoss="5.40" rerouteNo="0" devices="tripinfo_commuter_N_S.9" vType="car_commuter" speedFactor="0.97" vaporized=""/>
    <tripinfo id="commuter_N_S.10" depart="58.00" departLane="754598165#2_0" departPos="5.10" departSpeed="0.00" departDelay="5.00" arrival="74.00" arrivalLane="757092064#1_0" arrivalPos="81.46" arrivalSpeed="18.70" duration="16.00" routeLength="213.54" waitingTime="0.00" waitingCount="0" stopTime="0.00" timeLoss="4.67" rerouteNo="0" devices="tripinfo_commuter_N_S.10" vType="car_commuter" speedFactor="0.84" vaporized=""/>
    <tripinfo id="commuter_N_W.4" depart="57.00" departLane="754598165#2_0" departPos="5.10" departSpeed="0.00" departDelay="6.00" arrival="78.00" arrivalLane="978400303#0_3" arrivalPos="149.14" arrivalSpeed="19.29" duration="21.00" routeLength="273.05" waitingTime="0.00" waitingCount="0" stopTime="0.00" timeLoss="5.84" rerouteNo="0" devices="tripinfo_commuter_N_W.4" vType="car_commuter" speedFactor="1.06" vaporized=""/>
    <tripinfo id="commuter_N_S.11" depart="68.00" departLane="754598165#2_0" departPos="5.10" departSpeed="0.00" departDelay="5.00" arrival="84.00" arrivalLane="757092064#1_0" arrivalPos="81.46" arrivalSpeed="19.71" duration="16.00" routeLength="213.54" waitingTime="0.00" waitingCount="0" stopTime="0.00" timeLoss="4.57" rerouteNo="0" devices="tripinfo_commuter_N_S.11" vType="car_commuter" speedFactor="0.94" vaporized=""/>
    <tripinfo id="commuter_N_E.2" depart="61.00" departLane="754598165#2_0" departPos="5.10" departSpeed="0.00" departDelay="4.00" arrival="85.00" arrivalLane="563175146#1_0" arrivalPos="228.90" arrivalSpeed="18.93" duration="24.00" routeLength="331.30" waitingTime="0.00" waitingCount="0" stopTime="0.00" timeLoss="5.68" rerouteNo="0" devices="tripinfo_commuter_N_E.2" vType="car_commuter" speedFactor="1.04" vaporized=""/>
    <tripinfo id="commuter_N_W.5" depart="64.00" departLane="754598165#2_0" departPos="5.10" departSpeed="0.00" departDelay="6.00" arrival="86.00" arrivalLane="978400303#0_3" arrivalPos="149.14" arrivalSpeed="19.41" duration="22.00" routeLength="273.05" waitingTime="0.00" waitingCount="0" stopTime="0.00" timeLoss="6.34" rerouteNo="0" devices="tripinfo_commuter_N_W.5" vType="car_commuter" speedFactor="0.99" vaporized=""/>
    <tripinfo id="commuter_N_E.3" depart="65.00" departLane="754598165#2_0" departPos="5.10" departSpeed="0.00" departDelay="3.00" arrival="89.00" arrivalLane="563175146#1_0" arrivalPos="228.90" arrivalSpeed="19.51" duration="24.00" routeLength="331.30" waitingTime="0.00" waitingCount="0" stopTime="0.00" timeLoss="5.86" rerouteNo="0" devices="tripinfo_commuter_N_E.3" vType="car_commuter" speedFactor="1.01" vaporized=""/>
    <tripinfo id="commuter_N_S.12" depart="74.00" departLane="754598165#2_0" departPos="5.10" departSpeed="0.00" departDelay="8.00" arrival="90.00" arrivalLane="757092064#1_0" arrivalPos="81.46" arrivalSpeed="18.73" duration="16.00" routeLength="213.54" waitingTime="0.00" waitingCount="0" stopTime="0.00" timeLoss="4.43" rerouteNo="0" devices="tripinfo_commuter_N_S.12" vType="car_commuter" speedFactor="1.17" vaporized=""/>
    <tripinfo id="bg_E_S.1" depart="35.00" departLane="749662140#0_0" departPos="5.10" departSpeed="0.00" departDelay="0.00" arrival="95.00" arrivalLane="757092064#1_0" arrivalPos="81.46" arrivalSpeed="16.87" duration="60.00" routeLength="177.43" waitingTime="38.00" waitingCount="1" stopTime="0.00" timeLoss="49.77" rerouteNo="0" devices="tripinfo_bg_E_S.1" vType="car_commuter" speedFactor="0.88" vaporized=""/>
    <tripinfo id="commuter_N_E.4" depart="71.00" departLane="754598165#2_0" departPos="5.10" departSpeed="0.00" departDelay="7.00" arrival="96.00" arrivalLane="563175146#1_0" arrivalPos="228.90" arrivalSpeed="19.02" duration="25.00" routeLength="331.30" waitingTime="0.00" waitingCount="0" stopTime="0.00" timeLoss="6.37" rerouteNo="0" devices="tripinfo_commuter_N_E.4" vType="car_commuter" speedFactor="0.88" vaporized=""/>
    <tripinfo id="bg_E_W.1" depart="67.00" departLane="749662140#0_0" departPos="5.10" departSpeed="0.00" departDelay="0.00" arrival="100.00" arrivalLane="978400303#0_1" arrivalPos="149.14" arrivalSpeed="18.76" duration="33.00" routeLength="297.03" waitingTime="6.00" waitingCount="1" stopTime="0.00" timeLoss="17.89" rerouteNo="0" devices="tripinfo_bg_E_W.1" vType="car_commuter" speedFactor="0.99" vaporized=""/>
    <tripinfo id="commuter_N_S.13" depart="77.00" departLane="754598165#2_0" departPos="5.10" departSpeed="0.00" departDelay="6.00" arrival="102.00" arrivalLane="757092064#1_0" arrivalPos="81.46" arrivalSpeed="18.75" duration="25.00" routeLength="213.54" waitingTime="3.00" waitingCount="1" stopTime="0.00" timeLoss="14.25" rerouteNo="0" devices="tripinfo_commuter_N_S.13" vType="car_commuter" speedFactor="1.04" vaporized=""/>
    <tripinfo id="commuter_N_S.14" depart="80.00" departLane="754598165#2_0" departPos="5.10" departSpeed="0.00" departDelay="5.00" arrival="102.00" arrivalLane="757092064#1_1" arrivalPos="81.46" arrivalSpeed="19.26" duration="22.00" routeLength="213.54" waitingTime="0.00" waitingCount="0" stopTime="0.00" timeLoss="11.07" rerouteNo="0" devices="tripinfo_commuter_N_S.14" vType="car_commuter" speedFactor="1.03" vaporized=""/>
    <tripinfo id="commuter_N_S.15" depart="87.00" departLane="754598165#2_0" departPos="5.10" departSpeed="0.00" departDelay="7.00" arrival="106.00" arrivalLane="757092064#1_0" arrivalPos="81.46" arrivalSpeed="18.71" duration="19.00" routeLength="213.54" waitingTime="0.00" waitingCount="0" stopTime="0.00" timeLoss="7.41" rerouteNo="0" devices="tripinfo_commuter_N_S.15" vType="car_commuter" speedFactor="1.10" vaporized=""/>
    <tripinfo id="commuter_N_S.16" depart="91.00" departLane="754598165#2_0" departPos="5.10" departSpeed="0.00" departDelay="3.00" arrival="107.00" arrivalLane="757092064#1_1" arrivalPos="81.46" arrivalSpeed="19.40" duration="16.00" routeLength="213.54" waitingTime="0.00" waitingCount="0" stopTime="0.00" timeLoss="4.89" rerouteNo="0" devices="tripinfo_commuter_N_S.16" vType="car_commuter" speedFactor="1.02" vaporized=""/>
    <tripinfo id="commuter_N_E.5" depart="83.00" departLane="754598165#2_0" departPos="5.10" departSpeed="0.00" departDelay="8.00" arrival="110.00" arrivalLane="563175146#1_0" arrivalPos="228.90" arrivalSpeed="19.06" duration="27.00" routeLength="331.30" waitingTime="0.00" waitingCount="0" stopTime="0.00" timeLoss="9.37" rerouteNo="0" devices="tripinfo_commuter_N_E.5" vType="car_commuter" speedFactor="1.01" vaporized=""/>
    <tripinfo id="commuter_N_W.6" depart="86.00" departLane="754598165#2_0" departPos="5.10" departSpeed="0.00" departDelay="11.00" arrival="110.00" arrivalLane="978400303#0_3" arrivalPos="149.14" arrivalSpeed="19.77" duration="24.00" routeLength="273.05" waitingTime="0.00" waitingCount="0" stopTime="0.00" timeLoss="7.27" rerouteNo="0" devices="tripinfo_commuter_N_W.6" vType="car_commuter" speedFactor="0.75" vaporized=""/>
    <tripinfo id="commuter_N_S.17" depart="94.00" departLane="754598165#2_0" departPos="5.10" departSpeed="0.00" departDelay="0.00" arrival="111.00" arrivalLane="757092064#1_0" arrivalPos="81.46" arrivalSpeed="19.63" duration="17.00" routeLength="213.54" waitingTime="0.00" waitingCount="0" stopTime="0.00" timeLoss="5.48" rerouteNo="0" devices="tripinfo_commuter_N_S.17" vType="car_commuter" speedFactor="0.99" vaporized=""/>
    <tripinfo id="commuter_N_W.7" depart="90.00" departLane="754598165#2_0" departPos="5.10" departSpeed="0.00" departDelay="10.00" arrival="112.00" arrivalLane="978400303#0_3" arrivalPos="149.14" arrivalSpeed="19.70" duration="22.00" routeLength="273.05" waitingTime="0.00" waitingCount="0" stopTime="0.00" timeLoss="6.57" rerouteNo="0" devices="tripinfo_commuter_N_W.7" vType="car_commuter" speedFactor="1.09" vaporized=""/>
    <tripinfo id="commuter_N_S.18" depart="106.00" departLane="754598165#2_0" departPos="5.10" departSpeed="0.00" departDelay="0.00" arrival="122.00" arrivalLane="757092064#1_0" arrivalPos="81.46" arrivalSpeed="18.86" duration="16.00" routeLength="213.54" waitingTime="0.00" waitingCount="0" stopTime="0.00" timeLoss="4.75" rerouteNo="0" devices="tripinfo_commuter_N_S.18" vType="car_commuter" speedFactor="1.11" vaporized=""/>
    <tripinfo id="commuter_N_W.8" depart="104.00" departLane="754598165#2_0" departPos="5.10" departSpeed="0.00" departDelay="0.00" arrival="125.00" arrivalLane="978400303#0_3" arrivalPos="149.14" arrivalSpeed="19.55" duration="21.00" routeLength="273.05" waitingTime="0.00" waitingCount="0" stopTime="0.00" timeLoss="5.33" rerouteNo="0" devices="tripinfo_commuter_N_W.8" vType="car_commuter" speedFactor="1.02" vaporized=""/>
    <tripinfo id="commuter_N_S.19" depart="110.00" departLane="754598165#2_0" departPos="5.10" departSpeed="0.00" departDelay="2.00" arrival="127.00" arrivalLane="757092064#1_0" arrivalPos="81.46" arrivalSpeed="19.10" duration="17.00" routeLength="213.54" waitingTime="0.00" waitingCount="0" stopTime="0.00" timeLoss="5.53" rerouteNo="0" devices="tripinfo_commuter_N_S.19" vType="car_commuter" speedFactor="1.03" vaporized=""/>
    <tripinfo id="commuter_N_W.9" depart="109.00" departLane="754598165#2_0" departPos="5.10" departSpeed="0.00" departDelay="3.00" arrival="131.00" arrivalLane="978400303#0_3" arrivalPos="149.14" arrivalSpeed="19.79" duration="22.00" routeLength="273.05" waitingTime="0.00" waitingCount="0" stopTime="0.00" timeLoss="5.55" rerouteNo="0" devices="tripinfo_commuter_N_W.9" vType="car_commuter" speedFactor="0.89" vaporized=""/>
    <tripinfo id="bg_E_W.2" depart="95.00" departLane="749662140#0_0" departPos="5.10" departSpeed="0.00" departDelay="0.00" arrival="137.00" arrivalLane="978400303#0_0" arrivalPos="149.14" arrivalSpeed="18.75" duration="42.00" routeLength="297.03" waitingTime="11.00" waitingCount="1" stopTime="0.00" timeLoss="26.95" rerouteNo="0" devices="tripinfo_bg_E_W.2" vType="car_commuter" speedFactor="0.94" vaporized=""/>
    <tripinfo id="bg_E_W.3" depart="99.00" departLane="749662140#0_0" departPos="5.10" departSpeed="0.00" departDelay="0.00" arrival="139.00" arrivalLane="978400303#0_0" arrivalPos="149.14" arrivalSpeed="18.96" duration="40.00" routeLength="297.03" waitingTime="6.00" waitingCount="1" stopTime="0.00" timeLoss="24.35" rerouteNo="0" devices="tripinfo_bg_E_W.3" vType="car_commuter" speedFactor="0.98" vaporized=""/>
    <tripinfo id="commuter_N_S.20" depart="114.00" departLane="754598165#2_0" departPos="5.10" departSpeed="0.00" departDelay="0.00" arrival="142.00" arrivalLane="757092064#1_0" arrivalPos="81.46" arrivalSpeed="18.84" duration="28.00" routeLength="213.54" waitingTime="4.00" waitingCount="1" stopTime="0.00" timeLoss="17.22" rerouteNo="0" devices="tripinfo_commuter_N_S.20" vType="car_commuter" speedFactor="0.88" vaporized=""/>
    <tripinfo id="commuter_N_S.21" depart="117.00" departLane="754598165#2_0" departPos="5.10" departSpeed="0.00" departDelay="2.00" arrival="143.00" arrivalLane="757092064#1_1" arrivalPos="81.46" arrivalSpeed="19.79" duration="26.00" routeLength="213.54" waitingTime="2.00" waitingCount="1" stopTime="0.00" timeLoss="14.38" rerouteNo="0" devices="tripinfo_commuter_N_S.21" vType="car_commuter" speedFactor="1.17" vaporized=""/>
    <tripinfo id="commuter_N_S.22" depart="122.00" departLane="754598165#2_0" departPos="5.10" departSpeed="0.00" departDelay="0.00" arrival="144.00" arrivalLane="757092064#1_0" arrivalPos="81.46" arrivalSpeed="18.79" duration="22.00" routeLength="213.54" waitingTime="0.00" waitingCount="0" stopTime="0.00" timeLoss="10.95" rerouteNo="0" devices="tripinfo_commuter_N_S.22" vType="car_commuter" speedFactor="1.19" vaporized=""/>
    <tripinfo id="commuter_N_S.23" depart="125.00" departLane="754598165#2_0" departPos="5.10" departSpeed="0.00" departDelay="2.00" arrival="144.00" arrivalLane="757092064#1_1" arrivalPos="81.46" arrivalSpeed="19.15" duration="19.00" routeLength="213.54" waitingTime="0.00" waitingCount="0" stopTime="0.00" timeLoss="8.00" rerouteNo="0" devices="tripinfo_commuter_N_S.23" vType="car_commuter" speedFactor="1.07" vaporized=""/>
    <tripinfo id="commuter_N_S.24" depart="129.00" departLane="754598165#2_0" departPos="5.10" departSpeed="0.00" departDelay="3.00" arrival="146.00" arrivalLane="757092064#1_0" arrivalPos="81.46" arrivalSpeed="19.55" duration="17.00" routeLength="213.54" waitingTime="0.00" waitingCount="0" stopTime="0.00" timeLoss="5.69" rerouteNo="0" devices="tripinfo_commuter_N_S.24" vType="car_commuter" speedFactor="0.99" vaporized=""/>
    <tripinfo id="commuter_N_W.10" depart="120.00" departLane="754598165#2_0" departPos="5.10" departSpeed="0.00" departDelay="0.00" arrival="147.00" arrivalLane="978400303#0_3" arrivalPos="149.14" arrivalSpeed="19.64" duration="27.00" routeLength="273.05" waitingTime="1.00" waitingCount="1" stopTime="0.00" timeLoss="10.90" rerouteNo="0" devices="tripinfo_commuter_N_W.10" vType="car_commuter" speedFactor="0.99" vaporized=""/>
    <tripinfo id="commuter_N_S.25" depart="132.00" departLane="754598165#2_0" departPos="5.10" departSpeed="0.00" departDelay="4.00" arrival="148.00" arrivalLane="757092064#1_0" arrivalPos="81.46" arrivalSpeed="18.72" duration="16.00" routeLength="213.54" waitingTime="0.00" waitingCount="0" stopTime="0.00" timeLoss="4.39" rerouteNo="0" devices="tripinfo_commuter_N_S.25" vType="car_commuter" speedFactor="1.14" vaporized=""/>
    <tripinfo id="commuter_N_W.11" depart="128.00" departLane="754598165#2_0" departPos="5.10" departSpeed="0.00" departDelay="4.00" arrival="149.00" arrivalLane="978400303#0_3" arrivalPos="149.14" arrivalSpeed="19.75" duration="21.00" routeLength="273.05" waitingTime="0.00" waitingCount="0" stopTime="0.00" timeLoss="5.10" rerouteNo="0" devices="tripinfo_commuter_N_W.11" vType="car_commuter" speedFactor="1.02" vaporized=""/>
    <tripinfo id="commuter_N_S.26" depart="137.00" departLane="754598165#2_0" departPos="5.10" departSpeed="0.00" departDelay="0.00" arrival="153.00" arrivalLane="757092064#1_0" arrivalPos="81.46" arrivalSpeed="19.77" duration="16.00" routeLength="213.54" waitingTime="0.00" waitingCount="0" stopTime="0.00" timeLoss="5.29" rerouteNo="0" devices="tripinfo_commuter_N_S.26" vType="car_commuter" speedFactor="0.98" vaporized=""/>
    <tripinfo id="bg_E_S.2" depart="124.00" departLane="749662140#0_0" departPos="5.10" departSpeed="0.00" departDelay="0.00" arrival="159.00" arrivalLane="757092064#1_0" arrivalPos="81.46" arrivalSpeed="19.45" duration="35.00" routeLength="177.43" waitingTime="12.00" waitingCount="2" stopTime="0.00" timeLoss="24.79" rerouteNo="0" devices="tripinfo_bg_E_S.2" vType="car_commuter" speedFactor="0.95" vaporized=""/>
    <tripinfo id="commuter_N_S.27" depart="146.00" departLane="754598165#2_0" departPos="5.10" departSpeed="0.00" departDelay="0.00" arrival="162.00" arrivalLane="757092064#1_0" arrivalPos="81.46" arrivalSpeed="19.64" duration="16.00" routeLength="213.54" waitingTime="0.00" waitingCount="0" stopTime="0.00" timeLoss="5.25" rerouteNo="0" devices="tripinfo_commuter_N_S.27" vType="car_commuter" speedFactor="0.92" vaporized=""/>
    <tripinfo id="bg_E_W.4" depart="133.00" departLane="749662140#0_0" departPos="5.10" departSpeed="0.00" departDelay="0.00" arrival="165.00" arrivalLane="978400303#0_1" arrivalPos="149.14" arrivalSpeed="19.85" duration="32.00" routeLength="297.03" waitingTime="0.00" waitingCount="0" stopTime="0.00" timeLoss="16.19" rerouteNo="0" devices="tripinfo_bg_E_W.4" vType="car_commuter" speedFactor="0.93" vaporized=""/>
    <tripinfo id="commuter_N_S.28" depart="150.00" departLane="754598165#2_0" departPos="5.10" departSpeed="0.00" departDelay="0.00" arrival="165.00" arrivalLane="757092064#1_0" arrivalPos="81.46" arrivalSpeed="19.08" duration="15.00" routeLength="213.54" waitingTime="0.00" waitingCount="0" stopTime="0.00" timeLoss="4.09" rerouteNo="0" devices="tripinfo_commuter_N_S.28" vType="car_commuter" speedFactor="1.00" vaporized=""/>
    <tripinfo id="commuter_N_W.12" depart="149.00" departLane="754598165#2_0" departPos="5.10" departSpeed="0.00" departDelay="0.00" arrival="170.00" arrivalLane="978400303#0_3" arrivalPos="149.14" arrivalSpeed="18.74" duration="21.00" routeLength="273.05" waitingTime="0.00" waitingCount="0" stopTime="0.00" timeLoss="5.53" rerouteNo="0" devices="tripinfo_commuter_N_W.12" vType="car_commuter" speedFactor="0.99" vaporized=""/>
    <tripinfo id="commuter_N_S.29" depart="154.00" departLane="754598165#2_0" departPos="5.10" departSpeed="0.00" departDelay="1.00" arrival="171.00" arrivalLane="757092064#1_0" arrivalPos="81.46" arrivalSpeed="19.25" duration="17.00" routeLength="213.54" waitingTime="0.00" waitingCount="0" stopTime="0.00" timeLoss="5.53" rerouteNo="0" devices="tripinfo_commuter_N_S.29" vType="car_commuter" speedFactor="1.20" vaporized=""/>
    <tripinfo id="bg_E_S.3" depart="136.00" departLane="749662140#0_0" departPos="5.10" departSpeed="0.00" departDelay="1.00" arrival="175.00" arrivalLane="757092064#1_0" arrivalPos="81.46" arrivalSpeed="18.48" duration="39.00" routeLength="177.43" waitingTime="12.00" waitingCount="2" stopTime="0.00" timeLoss="29.35" rerouteNo="0" devices="tripinfo_bg_E_S.3" vType="car_commuter" speedFactor="1.17" vaporized=""/>
    <tripinfo id="commuter_N_W.13" depart="153.00" departLane="754598165#2_0" departPos="5.10" departSpeed="0.00" departDelay="3.00" arrival="175.00" arrivalLane="978400303#0_3" arrivalPos="149.14" arrivalSpeed="19.83" duration="22.00" routeLength="273.05" waitingTime="0.00" waitingCount="0" stopTime="0.00" timeLoss="5.67" rerouteNo="0" devices="tripinfo_commuter_N_W.13" vType="car_commuter" speedFactor="0.92" vaporized=""/>
    <tripinfo id="bg_E_W.5" depart="158.00" departLane="749662140#0_0" departPos="5.10" departSpeed="0.00" departDelay="0.00" arrival="179.00" arrivalLane="978400303#0_1" arrivalPos="149.14" arrivalSpeed="19.20" duration="21.00" routeLength="297.03" waitingTime="0.00" waitingCount="0" stopTime="0.00" timeLoss="5.33" rerouteNo="0" devices="tripinfo_bg_E_W.5" vType="car_commuter" speedFactor="1.15" vaporized=""/>
    <tripinfo id="bg_E_N.0" depart="161.00" departLane="749662140#0_0" departPos="5.10" departSpeed="0.00" departDelay="2.00" arrival="179.00" arrivalLane="749988360#0_2" arrivalPos="93.21" arrivalSpeed="19.24" duration="18.00" routeLength="241.59" waitingTime="0.00" waitingCount="0" stopTime="0.00" timeLoss="4.76" rerouteNo="0" devices="tripinfo_bg_E_N.0" vType="car_commuter" speedFactor="1.03" vaporized=""/>
    <tripinfo id="commuter_N_S.30" depart="164.00" departLane="754598165#2_0" departPos="5.10" departSpeed="0.00" departDelay="0.00" arrival="181.00" arrivalLane="757092064#1_0" arrivalPos="81.46" arrivalSpeed="19.81" duration="17.00" routeLength="213.54" waitingTime="0.00" waitingCount="0" stopTime="0.00" timeLoss="5.42" rerouteNo="0" devices="tripinfo_commuter_N_S.30" vType="car_commuter" speedFactor="1.02" vaporized=""/>
    <tripinfo id="commuter_N_S.31" depart="167.00" departLane="754598165#2_0" departPos="5.10" departSpeed="0.00" departDelay="1.00" arrival="183.00" arrivalLane="757092064#1_0" arrivalPos="81.46" arrivalSpeed="19.01" duration="16.00" routeLength="213.54" waitingTime="0.00" waitingCount="0" stopTime="0.00" timeLoss="4.59" rerouteNo="0" devices="tripinfo_commuter_N_S.31" vType="car_commuter" speedFactor="0.94" vaporized=""/>
    <tripinfo id="commuter_N_S.32" depart="170.00" departLane="754598165#2_0" departPos="5.10" departSpeed="0.00" departDelay="3.00" arrival="186.00" arrivalLane="757092064#1_0" arrivalPos="81.46" arrivalSpeed="19.39" duration="16.00" routeLength="213.54" waitingTime="0.00" waitingCount="0" stopTime="0.00" timeLoss="5.28" rerouteNo="0" devices="tripinfo_commuter_N_S.32" vType="car_commuter" speedFactor="1.00" vaporized=""/>
    <tripinfo id="commuter_N_S.33" depart="176.00" departLane="754598165#2_0" departPos="5.10" departSpeed="0.00" departDelay="7.00" arrival="191.00" arrivalLane="757092064#1_0" arrivalPos="81.46" arrivalSpeed="19.38" duration="15.00" routeLength="213.54" waitingTime="0.00" waitingCount="0" stopTime="0.00" timeLoss="4.29" rerouteNo="0" devices="tripinfo_commuter_N_S.33" vType="car_commuter" speedFactor="1.05" vaporized=""/>
    <tripinfo id="commuter_N_E.6" depart="173.00" departLane="754598165#2_0" departPos="5.10" departSpeed="0.00" departDelay="5.00" arrival="196.00" arrivalLane="563175146#1_0" arrivalPos="228.90" arrivalSpeed="19.91" duration="23.00" routeLength="331.30" waitingTime="0.00" waitingCount="0" stopTime="0.00" timeLoss="5.10" rerouteNo="0" devices="tripinfo_commuter_N_E.6" vType="car_commuter" speedFactor="1.06" vaporized=""/>
    <tripinfo id="commuter_N_S.34" depart="179.00" departLane="754598165#2_0" departPos="5.10" departSpeed="0.00" departDelay="7.00" arrival="196.00" arrivalLane="757092064#1_0" arrivalPos="81.46" arrivalSpeed="18.97" duration="17.00" routeLength="213.54" waitingTime="0.00" waitingCount="0" stopTime="0.00" timeLoss="5.63" rerouteNo="0" devices="tripinfo_commuter_N_S.34" vType="car_commuter" speedFactor="1.01" vaporized=""/>